VARIABLES = X Y Z I J K U V W
ZONE I= 8000 J= 8000 K= 8000
0.0 0.0 0.0 0 0 0 -1.70265955046 -0.605586431534 1.38323209228
0.0 0.0 0.001 0 0 1 0.784408466358 -0.720435509169 -0.660972400578
0.0 0.0 0.002 0 0 2 0.291894757853 1.13956752623 -0.216204446557
0.0 0.0 0.003 0 0 3 1.73146807148 -1.34824849576 0.348488510237
0.0 0.0 0.004 0 0 4 1.88129296877 -1.16407028311 -0.656083604388
0.0 0.0 0.005 0 0 5 1.00848516945 -2.02454955665 -0.0627309398341
0.0 0.0 0.006 0 0 6 -1.01154700256 0.220960860929 -0.244513995448
0.0 0.0 0.007 0 0 7 -0.557715781272 0.76478161916 0.0424998510112
0.0 0.0 0.008 0 0 8 -0.27347727881 2.41986748428 -1.03330346989
0.0 0.0 0.009000000000000001 0 0 9 -1.92664085759 1.71773782199 0.0227882850018
0.0 0.0 0.01 0 0 10 -0.270128218129 -1.00494058383 -0.864853686443
0.0 0.0 0.011 0 0 11 -0.190235185889 -0.0673262605755 1.06104153256
0.0 0.0 0.012 0 0 12 0.646738312149 -1.07664854873 -1.86738449993
0.0 0.0 0.013000000000000001 0 0 13 0.542324407421 -0.962517162989 1.70907297345
0.0 0.0 0.014 0 0 14 1.00170468849 0.148461404882 -1.97065612277
0.0 0.0 0.015 0 0 15 0.0472897413248 1.16317817621 0.646419402261
0.0 0.0 0.016 0 0 16 -0.683092231385 0.725797230797 0.122906655807
0.0 0.0 0.017 0 0 17 0.801700259059 -0.596745430127 0.352518354232
0.0 0.0 0.018000000000000002 0 0 18 -0.205162626397 0.465239755396 1.45896675614
0.0 0.0 0.019 0 0 19 1.70614929222 1.6376813837 1.10864089979
0.0 0.001 0.0 0 1 0 0.728792884971 -0.806232323599 0.0171201448061
0.0 0.001 0.001 0 1 1 -0.809737993806 0.0233097824225 0.632028247218
0.0 0.001 0.002 0 1 2 -1.16234409756 1.43091039477 0.483235180794
0.0 0.001 0.003 0 1 3 0.206711313728 0.352332424174 0.707728653648
0.0 0.001 0.004 0 1 4 0.583106700017 0.9176717072 1.60870005905
0.0 0.001 0.005 0 1 5 -0.366806962531 0.840619564536 1.28455436807
0.0 0.001 0.006 0 1 6 -1.22292080522 0.759762217664 0.999538576436
0.0 0.001 0.007 0 1 7 -0.058401530335 1.37937385832 -1.05248136796
0.0 0.001 0.008 0 1 8 0.757843382717 0.642207340148 -0.345636355027
0.0 0.001 0.009000000000000001 0 1 9 1.43997994547 -0.137264540035 -1.47260149413
0.0 0.001 0.01 0 1 10 -1.36143369852 0.491833052913 -0.263993606737
0.0 0.001 0.011 0 1 11 1.27974048601 -0.098893938931 0.539308296323
0.0 0.001 0.012 0 1 12 -1.034388573 0.388717720965 2.10909590202
0.0 0.001 0.013000000000000001 0 1 13 0.37154387763 -0.902775904716 -0.672538382167
0.0 0.001 0.014 0 1 14 0.474713474856 -1.38610471233 0.989772659053
0.0 0.001 0.015 0 1 15 -0.955358291021 1.04961697948 -0.223168823636
0.0 0.001 0.016 0 1 16 0.0439888554292 -1.70015708606 -0.9381288601
0.0 0.001 0.017 0 1 17 2.02701129033 1.28915571102 0.901619996459
0.0 0.001 0.018000000000000002 0 1 18 -0.354395214123 0.971890071575 -0.62154639043
0.0 0.001 0.019 0 1 19 -0.499283549571 -0.295231791014 1.8977313257
0.0 0.002 0.0 0 2 0 1.11172799566 -0.38145905747 1.78024450951
0.0 0.002 0.001 0 2 1 -1.07635368623 -1.3327852967 -1.84090862209
0.0 0.002 0.002 0 2 2 0.118265177497 0.485190341631 -0.602051335388
0.0 0.002 0.003 0 2 3 0.389019364736 -1.47515564623 -0.93687768176
0.0 0.002 0.004 0 2 4 -0.52310890477 1.22979534918 -0.268439198136
0.0 0.002 0.005 0 2 5 0.617696429483 -0.804633265189 -0.718423868424
0.0 0.002 0.006 0 2 6 1.72776832011 0.222052145833 0.042125680585
0.0 0.002 0.007 0 2 7 -0.488649350056 -1.01323071109 0.744832692445
0.0 0.002 0.008 0 2 8 -0.0760576221178 -0.570394123077 1.71692810597
0.0 0.002 0.009000000000000001 0 2 9 0.431669363339 -0.590773212438 0.918739032531
0.0 0.002 0.01 0 2 10 -3.40678983611 0.280022158242 -0.626419958471
0.0 0.002 0.011 0 2 11 0.970308027747 -1.01502654221 0.541756552297
0.0 0.002 0.012 0 2 12 -0.814379306927 -1.30514957949 0.0314033709152
0.0 0.002 0.013000000000000001 0 2 13 0.140761993312 -0.929845767652 2.9613332518
0.0 0.002 0.014 0 2 14 0.031968125413 -1.63003505586 1.31591279161
0.0 0.002 0.015 0 2 15 0.655104569992 0.52395706363 0.434459554948
0.0 0.002 0.016 0 2 16 -0.0375229724933 0.96585810331 -1.63473739257
0.0 0.002 0.017 0 2 17 -0.988503629085 -0.150955525619 0.697327551871
0.0 0.002 0.018000000000000002 0 2 18 0.113354379499 -0.383054628631 -1.9188056097
0.0 0.002 0.019 0 2 19 0.0953656522795 -1.74115317927 0.995790573719
0.0 0.003 0.0 0 3 0 0.237288467582 1.44112174448 0.0396633704153
0.0 0.003 0.001 0 3 1 -1.13021694112 -0.788600691496 0.73684835017
0.0 0.003 0.002 0 3 2 0.132015000341 0.976256349204 -0.812027354945
0.0 0.003 0.003 0 3 3 1.41693746749 1.79845911883 -0.761053201606
0.0 0.003 0.004 0 3 4 0.0730749755002 0.638882867661 -0.296830213045
0.0 0.003 0.005 0 3 5 -0.571365408104 0.235284542074 0.650813058185
0.0 0.003 0.006 0 3 6 -0.660055029802 -0.566280565147 -0.940964455779
0.0 0.003 0.007 0 3 7 -0.435712970505 -0.00814315764052 0.240046737091
0.0 0.003 0.008 0 3 8 -0.749930747046 0.682398785265 0.125642029535
0.0 0.003 0.009000000000000001 0 3 9 -0.521399992565 0.130358375544 -0.89750765975
0.0 0.003 0.01 0 3 10 0.864076930634 -0.629277503932 2.00485013508
0.0 0.003 0.011 0 3 11 1.10013565538 0.636453328501 1.49654942746
0.0 0.003 0.012 0 3 12 1.28265971936 0.130625571704 0.553955793456
0.0 0.003 0.013000000000000001 0 3 13 0.135434254938 0.392688995386 -0.634774282088
0.0 0.003 0.014 0 3 14 -1.16710649799 0.0370719047507 -0.606429261902
0.0 0.003 0.015 0 3 15 -0.393801095458 0.524839637413 0.133409680185
0.0 0.003 0.016 0 3 16 -1.50590835764 -0.434520394167 -0.795359469277
0.0 0.003 0.017 0 3 17 1.08123637096 0.549671345936 0.953699021051
0.0 0.003 0.018000000000000002 0 3 18 -0.197885812801 0.931619644385 -1.58215811592
0.0 0.003 0.019 0 3 19 -0.876567772064 -1.80097587685 -0.482519821592
0.0 0.004 0.0 0 4 0 0.511443906009 1.75588082141 -0.865835963463
0.0 0.004 0.001 0 4 1 0.888212207387 -0.317645998829 -0.33398659125
0.0 0.004 0.002 0 4 2 -0.506113913797 0.459136649838 0.881639505934
0.0 0.004 0.003 0 4 3 1.7760118612 -2.43466694513 0.328116391711
0.0 0.004 0.004 0 4 4 -0.267348394199 -0.0419566175723 -0.125977168144
0.0 0.004 0.005 0 4 5 0.890293829134 0.703518148797 -1.14852338152
0.0 0.004 0.006 0 4 6 -1.04234087434 -2.00012825756 1.54491443859
0.0 0.004 0.007 0 4 7 1.62236425382 -0.132843394654 0.28241022424
0.0 0.004 0.008 0 4 8 0.682390661696 1.10356955789 -0.118532430377
0.0 0.004 0.009000000000000001 0 4 9 1.72461234097 -1.36285151904 1.12560226173
0.0 0.004 0.01 0 4 10 0.644190521554 0.736364415291 -0.990718934279
0.0 0.004 0.011 0 4 11 0.0125106400446 0.217015709906 0.547486260384
0.0 0.004 0.012 0 4 12 -0.675913653224 0.943129529869 1.56902791949
0.0 0.004 0.013000000000000001 0 4 13 -2.88684608484 0.220519517564 -0.988007407264
0.0 0.004 0.014 0 4 14 1.25762083295 -0.730484208463 0.364192937176
0.0 0.004 0.015 0 4 15 -1.29662751646 0.409490326787 -0.710839712
0.0 0.004 0.016 0 4 16 2.40577452797 0.269340244672 -0.80988548666
0.0 0.004 0.017 0 4 17 2.16008665712 -0.837776833417 -0.00742637601134
0.0 0.004 0.018000000000000002 0 4 18 0.503591598312 -0.283148765405 -0.849738018013
0.0 0.004 0.019 0 4 19 0.606776749013 0.268635435443 0.323896821326
0.0 0.005 0.0 0 5 0 0.352835736366 1.44323723738 -0.0859019666214
0.0 0.005 0.001 0 5 1 -1.77059727457 -2.40015444648 0.75994527663
0.0 0.005 0.002 0 5 2 1.09868769223 1.1105713423 -1.42324955917
0.0 0.005 0.003 0 5 3 -1.15708484166 -0.360971201592 -0.439084893851
0.0 0.005 0.004 0 5 4 0.962370367517 1.37869610368 0.314242019778
0.0 0.005 0.005 0 5 5 -0.439853620299 -0.0946014943909 -0.552482793302
0.0 0.005 0.006 0 5 6 -1.37926787424 0.81304265746 1.56757090297
0.0 0.005 0.007 0 5 7 -1.5529135765 1.67303340659 1.2582778836
0.0 0.005 0.008 0 5 8 0.939120876789 0.609608318771 1.62913021872
0.0 0.005 0.009000000000000001 0 5 9 -0.645313298052 -1.47450059556 -1.71427796016
0.0 0.005 0.01 0 5 10 0.0801893139653 -1.55068354954 0.698034520383
0.0 0.005 0.011 0 5 11 -2.4966344418 0.348616264084 0.176961921611
0.0 0.005 0.012 0 5 12 0.382743434397 0.3446871147 -0.717920681334
0.0 0.005 0.013000000000000001 0 5 13 0.326849239776 0.521039444703 -1.11185985667
0.0 0.005 0.014 0 5 14 1.42159340323 1.53851446345 -0.496509766543
0.0 0.005 0.015 0 5 15 1.03459296295 -0.697954576594 -0.860032287084
0.0 0.005 0.016 0 5 16 -0.255407809205 -0.929932302962 0.65414510242
0.0 0.005 0.017 0 5 17 -0.716493507799 0.430870057237 0.803437362086
0.0 0.005 0.018000000000000002 0 5 18 0.0531319760602 -0.857560235183 0.61894857534
0.0 0.005 0.019 0 5 19 -1.06670947775 -0.814235099272 -0.0317273549085
0.0 0.006 0.0 0 6 0 -1.31470387294 1.22454860687 -0.801716227196
0.0 0.006 0.001 0 6 1 0.500209954701 0.374368798441 -1.83711356934
0.0 0.006 0.002 0 6 2 1.2543547321 0.128519819844 -1.69521370643
0.0 0.006 0.003 0 6 3 -0.0676938957059 -0.583266934427 -2.09102581099
0.0 0.006 0.004 0 6 4 -0.640986047472 -0.328833057617 1.08576762286
0.0 0.006 0.005 0 6 5 1.19837527043 1.51097616697 -0.0865053908746
0.0 0.006 0.006 0 6 6 0.637393950475 1.01933852966 0.554141690028
0.0 0.006 0.007 0 6 7 -0.830478359111 -2.15106740099 -0.370463832483
0.0 0.006 0.008 0 6 8 2.2955415271 0.324791576281 0.435018578898
0.0 0.006 0.009000000000000001 0 6 9 -0.191946165835 -0.90768302076 -1.41523564771
0.0 0.006 0.01 0 6 10 0.795376328585 -0.917810703009 0.467627071161
0.0 0.006 0.011 0 6 11 -0.270425120005 0.695611688472 0.848387702706
0.0 0.006 0.012 0 6 12 0.529364997881 1.44427872103 1.19641584279
0.0 0.006 0.013000000000000001 0 6 13 -0.347674323918 0.22691531421 0.291616517983
0.0 0.006 0.014 0 6 14 0.540708909748 -0.708425242979 -0.0265285397376
0.0 0.006 0.015 0 6 15 -0.958625680754 0.42536062465 -0.195989657579
0.0 0.006 0.016 0 6 16 0.236028057445 -1.08984029161 0.0925259715352
0.0 0.006 0.017 0 6 17 -2.29968738978 1.47784962539 0.678332284215
0.0 0.006 0.018000000000000002 0 6 18 -0.0935644617593 -0.799445084313 -1.38572625385
0.0 0.006 0.019 0 6 19 1.15871606637 -0.865628927702 -1.54614774701
0.0 0.007 0.0 0 7 0 0.12788820263 0.72996125225 1.49323380008
0.0 0.007 0.001 0 7 1 1.23373404193 0.656449587954 0.6961381165
0.0 0.007 0.002 0 7 2 -1.19702081192 -0.169699903513 0.617375419054
0.0 0.007 0.003 0 7 3 -0.394644714343 0.877431234855 0.64707446827
0.0 0.007 0.004 0 7 4 -0.589113067894 0.194138124898 0.0182443883723
0.0 0.007 0.005 0 7 5 0.0257667865894 1.98247019175 2.78466900807
0.0 0.007 0.006 0 7 6 -0.151880153627 1.35436684578 -0.963833498333
0.0 0.007 0.007 0 7 7 0.114031425851 -0.22493464049 -1.22557825993
0.0 0.007 0.008 0 7 8 2.03379621771 -0.0877131703461 0.294739001191
0.0 0.007 0.009000000000000001 0 7 9 0.250009734899 -1.18724968167 -0.271278929678
0.0 0.007 0.01 0 7 10 1.88567614953 0.0967553249199 0.730400628089
0.0 0.007 0.011 0 7 11 0.0760324464694 0.0414585732193 0.348563866547
0.0 0.007 0.012 0 7 12 2.86798311093 -0.17724311003 -1.44916673423
0.0 0.007 0.013000000000000001 0 7 13 0.585837688304 0.81235933308 -0.15563945526
0.0 0.007 0.014 0 7 14 -0.400389741171 -0.970241260777 0.00231609864228
0.0 0.007 0.015 0 7 15 -0.581219747576 0.314820965978 0.549532610115
0.0 0.007 0.016 0 7 16 1.22439457078 1.68237792092 -0.536607823399
0.0 0.007 0.017 0 7 17 1.44705833046 0.532090554388 -0.993742691753
0.0 0.007 0.018000000000000002 0 7 18 2.15787831505 0.688261731861 1.20219796949
0.0 0.007 0.019 0 7 19 -0.120254210702 0.0600242278513 -0.118502466699
0.0 0.008 0.0 0 8 0 1.76447650422 -0.660945430612 0.665004544414
0.0 0.008 0.001 0 8 1 -0.230960571906 0.182528311365 -0.359208647738
0.0 0.008 0.002 0 8 2 1.17025493524 -0.732756290493 -1.1979286328
0.0 0.008 0.003 0 8 3 -1.6583915032 0.140880176786 -0.0959433898818
0.0 0.008 0.004 0 8 4 1.6623423303 1.04046788558 1.56034307052
0.0 0.008 0.005 0 8 5 0.400298940898 -0.148425682979 0.915316923988
0.0 0.008 0.006 0 8 6 -0.959766633483 -0.937415319834 0.592717799831
0.0 0.008 0.007 0 8 7 1.34776931987 0.949440454054 0.731265330624
0.0 0.008 0.008 0 8 8 1.31614222409 0.587305425199 -0.129999566845
0.0 0.008 0.009000000000000001 0 8 9 -0.366602884419 -1.59001064444 0.269074515556
0.0 0.008 0.01 0 8 10 -0.0138809775131 -2.61053462329 -0.227721258473
0.0 0.008 0.011 0 8 11 2.36056794297 -0.31493670339 -0.479707722909
0.0 0.008 0.012 0 8 12 -0.523618128447 -0.731397434523 -0.509331964731
0.0 0.008 0.013000000000000001 0 8 13 0.94591536197 -1.16880150107 0.0679205084386
0.0 0.008 0.014 0 8 14 2.08779308455 -0.690505400022 0.422913666337
0.0 0.008 0.015 0 8 15 -0.188577693379 0.0879494210042 1.23382740839
0.0 0.008 0.016 0 8 16 1.96660151606 -0.0248441269454 -0.749576919436
0.0 0.008 0.017 0 8 17 -0.873107111262 0.0231477985377 -1.43248652248
0.0 0.008 0.018000000000000002 0 8 18 -1.53672879576 -0.236219639588 0.015170360628
0.0 0.008 0.019 0 8 19 0.7422232624 0.330730130107 1.2148485329
0.0 0.009000000000000001 0.0 0 9 0 -0.588785591972 0.6651493284 0.0963556321624
0.0 0.009000000000000001 0.001 0 9 1 -1.47216484752 -0.249989353848 0.411545718935
0.0 0.009000000000000001 0.002 0 9 2 -0.307487100711 0.976187319718 1.430005773
0.0 0.009000000000000001 0.003 0 9 3 0.707751918735 2.47564173538 1.15428220456
0.0 0.009000000000000001 0.004 0 9 4 -0.845511896577 0.649554735603 -1.82256526674
0.0 0.009000000000000001 0.005 0 9 5 -0.176024117404 0.513615617697 1.94840708768
0.0 0.009000000000000001 0.006 0 9 6 0.831652519844 -0.184959063663 -0.316750563789
0.0 0.009000000000000001 0.007 0 9 7 -1.50571255512 -0.239318126791 0.482703194086
0.0 0.009000000000000001 0.008 0 9 8 -0.581041398691 -0.510097815591 1.10147100567
0.0 0.009000000000000001 0.009000000000000001 0 9 9 -0.0431005329484 0.232745187955 1.09010387062
0.0 0.009000000000000001 0.01 0 9 10 -1.09378452671 0.897221467241 -0.948725876937
0.0 0.009000000000000001 0.011 0 9 11 0.860082053673 -0.181890488647 0.153150824114
0.0 0.009000000000000001 0.012 0 9 12 -1.37254639718 0.929841248122 1.16522082743
0.0 0.009000000000000001 0.013000000000000001 0 9 13 1.09182258176 -1.02994378751 1.03792261823
0.0 0.009000000000000001 0.014 0 9 14 0.0549100625743 -0.22391670687 -0.200589635386
0.0 0.009000000000000001 0.015 0 9 15 -1.56915571772 1.34195201278 1.07275872248
0.0 0.009000000000000001 0.016 0 9 16 -0.920124493432 1.92133407401 -0.739110281359
0.0 0.009000000000000001 0.017 0 9 17 0.566834097068 0.125130904791 1.35794521193
0.0 0.009000000000000001 0.018000000000000002 0 9 18 -1.14444288944 0.876250980945 -0.884116823225
0.0 0.009000000000000001 0.019 0 9 19 0.693319314108 -1.41365989632 0.0495311563505
0.0 0.01 0.0 0 10 0 -0.0762054060561 0.581841304534 -0.115521381437
0.0 0.01 0.001 0 10 1 -0.186348878603 1.84279173949 -0.956778341436
0.0 0.01 0.002 0 10 2 -0.440903179918 0.776479885057 0.990738426957
0.0 0.01 0.003 0 10 3 -1.43975852418 0.736457389484 0.00160639028805
0.0 0.01 0.004 0 10 4 0.0245668970069 0.64484434924 -0.163090805725
0.0 0.01 0.005 0 10 5 0.575620306783 -0.300078349995 1.38376191071
0.0 0.01 0.006 0 10 6 0.688043215805 -0.148553787841 1.08757510742
0.0 0.01 0.007 0 10 7 -1.18700293901 0.26317866911 -1.40186684055
0.0 0.01 0.008 0 10 8 -1.56624545717 0.852561525678 1.64599080275
0.0 0.01 0.009000000000000001 0 10 9 -0.574766637816 -1.18984648481 0.0544500579108
0.0 0.01 0.01 0 10 10 1.34578198248 0.732194881064 0.549221219436
0.0 0.01 0.011 0 10 11 1.04877342051 -0.288637400423 0.274224249825
0.0 0.01 0.012 0 10 12 -0.10761093116 0.719445213387 -1.47787405866
0.0 0.01 0.013000000000000001 0 10 13 1.50787073745 1.41302227179 -0.143814930979
0.0 0.01 0.014 0 10 14 -0.0646871668701 -0.683628720479 -0.0335232372601
0.0 0.01 0.015 0 10 15 0.768520615754 -0.94408668043 1.96424080675
0.0 0.01 0.016 0 10 16 1.41668743318 1.05355673111 -1.81522280199
0.0 0.01 0.017 0 10 17 -1.39034858234 0.56534973923 -1.321146885
0.0 0.01 0.018000000000000002 0 10 18 0.432013107704 0.137442131143 0.410384344371
0.0 0.01 0.019 0 10 19 2.19235284536 -0.00688025869103 -1.7095293188
0.0 0.011 0.0 0 11 0 0.0044312734078 0.109688722809 -1.10171864998
0.0 0.011 0.001 0 11 1 1.55215619205 0.585776689359 0.627948966836
0.0 0.011 0.002 0 11 2 -1.75771875102 0.219461632925 -2.34747048302
0.0 0.011 0.003 0 11 3 1.08195074003 -0.576137462683 0.747542914406
0.0 0.011 0.004 0 11 4 0.119550419246 0.546207408195 0.345943621848
0.0 0.011 0.005 0 11 5 1.01757928646 0.390152932549 -0.56159503199
0.0 0.011 0.006 0 11 6 -1.0481051756 -0.276952321347 0.123013383501
0.0 0.011 0.007 0 11 7 -1.47784605725 -0.756512121336 1.22463883856
0.0 0.011 0.008 0 11 8 -0.102333061449 -0.853647875214 -1.65378199254
0.0 0.011 0.009000000000000001 0 11 9 1.26911167478 0.812213279466 0.583742363811
0.0 0.011 0.01 0 11 10 1.35140412145 0.439561767881 -0.109753105601
0.0 0.011 0.011 0 11 11 1.26420103175 0.73009160921 -0.688312028847
0.0 0.011 0.012 0 11 12 0.752371648437 -0.18253436797 0.477045053918
0.0 0.011 0.013000000000000001 0 11 13 1.24975763524 -0.732280433051 0.560567556209
0.0 0.011 0.014 0 11 14 -0.621346619337 -1.61870919761 -1.42304320832
0.0 0.011 0.015 0 11 15 -0.0362829402803 2.46120864365 -0.926616351233
0.0 0.011 0.016 0 11 16 0.899733556686 0.259401302398 -0.834892123832
0.0 0.011 0.017 0 11 17 0.464140187528 0.531538751268 -0.602156615545
0.0 0.011 0.018000000000000002 0 11 18 0.0218274257411 -0.809530587071 -1.7844428258
0.0 0.011 0.019 0 11 19 1.51519750979 0.044823812689 -0.161678332609
0.0 0.012 0.0 0 12 0 1.13067906127 1.1994228615 -0.214569406132
0.0 0.012 0.001 0 12 1 -1.2980028277 -0.435951380819 1.14374176253
0.0 0.012 0.002 0 12 2 -0.578939988854 0.907194753051 1.39180887501
0.0 0.012 0.003 0 12 3 -0.656395329505 -0.326771459055 1.79014810564
0.0 0.012 0.004 0 12 4 0.365147708504 0.399801162507 1.2953864353
0.0 0.012 0.005 0 12 5 0.977513785234 0.669382627615 -0.713070529764
0.0 0.012 0.006 0 12 6 0.911133709418 -0.825033430015 0.821451814378
0.0 0.012 0.007 0 12 7 0.752237016808 -0.913791632903 -0.494025938094
0.0 0.012 0.008 0 12 8 1.17679653411 0.676135317404 -0.288493874131
0.0 0.012 0.009000000000000001 0 12 9 -1.10600075219 -1.11031862285 -1.00227243752
0.0 0.012 0.01 0 12 10 0.7301012334 0.89918045399 -0.140648906343
0.0 0.012 0.011 0 12 11 -0.559807258922 0.746971998138 -0.588805529439
0.0 0.012 0.012 0 12 12 -0.205484894896 -0.216649820686 -0.657954987996
0.0 0.012 0.013000000000000001 0 12 13 -1.02342982744 0.994354686815 0.531953037907
0.0 0.012 0.014 0 12 14 -1.00505405823 0.935427088305 0.963378042831
0.0 0.012 0.015 0 12 15 -0.800112717278 0.487953385707 0.33569411009
0.0 0.012 0.016 0 12 16 1.11243253369 -0.437831239627 2.45671459999
0.0 0.012 0.017 0 12 17 0.961554600517 -0.28361952269 -0.980050029144
0.0 0.012 0.018000000000000002 0 12 18 1.38946695174 -1.07088243847 -1.51588589323
0.0 0.012 0.019 0 12 19 -0.932803675473 0.580028399455 1.01450568885
0.0 0.013000000000000001 0.0 0 13 0 0.875695512564 1.15489742471 1.1441770655
0.0 0.013000000000000001 0.001 0 13 1 -0.61700186277 0.789576201309 -1.64196289803
0.0 0.013000000000000001 0.002 0 13 2 -0.558307262796 -1.45922516656 -0.171610673383
0.0 0.013000000000000001 0.003 0 13 3 1.38180462684 0.899829455118 2.61833779592
0.0 0.013000000000000001 0.004 0 13 4 -0.912130911836 -0.162859881735 0.439831508823
0.0 0.013000000000000001 0.005 0 13 5 -0.156925538587 -0.495649649983 0.30276517199
0.0 0.013000000000000001 0.006 0 13 6 -0.459475356702 0.306810151372 -2.92259290622
0.0 0.013000000000000001 0.007 0 13 7 2.34813961279 -1.61201061995 0.759292499098
0.0 0.013000000000000001 0.008 0 13 8 -0.649437353249 -0.599178218429 -0.358479389999
0.0 0.013000000000000001 0.009000000000000001 0 13 9 0.668450922644 -1.50832644557 1.16906224792
0.0 0.013000000000000001 0.01 0 13 10 -0.941561811767 0.571187384487 -1.22503283235
0.0 0.013000000000000001 0.011 0 13 11 0.61564378119 0.794567540243 -0.00689836561085
0.0 0.013000000000000001 0.012 0 13 12 0.602693773005 1.18385885568 0.668866962011
0.0 0.013000000000000001 0.013000000000000001 0 13 13 0.04681370863 1.04929104261 0.156492536287
0.0 0.013000000000000001 0.014 0 13 14 -0.14012545954 -1.77565121926 0.46196981659
0.0 0.013000000000000001 0.015 0 13 15 -0.540483796185 -0.0929624998387 0.316019625673
0.0 0.013000000000000001 0.016 0 13 16 -0.368667849708 -1.21392565451 -0.0364645736101
0.0 0.013000000000000001 0.017 0 13 17 0.284439651309 1.47892291663 -1.29174227052
0.0 0.013000000000000001 0.018000000000000002 0 13 18 -1.12592871482 0.465334648569 0.972743001446
0.0 0.013000000000000001 0.019 0 13 19 -1.57576277453 1.22052635408 -1.32712068103
0.0 0.014 0.0 0 14 0 0.161207457671 -2.29222804151 0.276273580387
0.0 0.014 0.001 0 14 1 -1.12139706625 0.472842677846 0.170492414471
0.0 0.014 0.002 0 14 2 -0.409634868871 -0.261096690243 0.305633449433
0.0 0.014 0.003 0 14 3 -0.511255416098 -1.19216940075 -1.38715221433
0.0 0.014 0.004 0 14 4 -1.48535045051 0.726756338783 -0.837988770397
0.0 0.014 0.005 0 14 5 -0.304516485726 0.150874848715 0.710659264035
0.0 0.014 0.006 0 14 6 -0.731816074073 -0.731782681433 1.95780498724
0.0 0.014 0.007 0 14 7 0.118069350256 -0.0495670682061 0.362746234017
0.0 0.014 0.008 0 14 8 -1.54770841745 -0.097662547304 -0.112258475693
0.0 0.014 0.009000000000000001 0 14 9 1.71050921668 -0.675050176653 1.70209970942
0.0 0.014 0.01 0 14 10 0.700273870609 0.811449730621 1.41859001622
0.0 0.014 0.011 0 14 11 -0.699848142843 0.4881600705 0.834146793313
0.0 0.014 0.012 0 14 12 -0.537438856888 0.534454500217 0.49951632106
0.0 0.014 0.013000000000000001 0 14 13 0.044658529802 1.07013088746 -0.321510631666
0.0 0.014 0.014 0 14 14 1.5645543437 -0.531913417132 -0.45305505545
0.0 0.014 0.015 0 14 15 0.0987877755819 0.489891601433 0.197656314428
0.0 0.014 0.016 0 14 16 1.19698134525 0.443072138278 1.18007986824
0.0 0.014 0.017 0 14 17 -1.07631977084 0.9710525061 -0.954300409074
0.0 0.014 0.018000000000000002 0 14 18 -0.354926325434 1.24669131067 -0.552765269517
0.0 0.014 0.019 0 14 19 -0.972813024003 -0.0695776493409 -2.24579411066
0.0 0.015 0.0 0 15 0 -1.4065706689 -0.568741347787 0.463746056824
0.0 0.015 0.001 0 15 1 0.590632038315 0.168103701432 0.0541984249066
0.0 0.015 0.002 0 15 2 -0.291177320417 -0.977208082772 0.297612745037
0.0 0.015 0.003 0 15 3 0.890078747034 0.539561745414 -0.786170063911
0.0 0.015 0.004 0 15 4 -0.000495454271697 0.228637792504 -0.872277460421
0.0 0.015 0.005 0 15 5 -0.0568964394558 -0.874446003079 -0.567412245496
0.0 0.015 0.006 0 15 6 0.370221042279 -0.320062356874 -0.859729148363
0.0 0.015 0.007 0 15 7 1.51277823297 1.3656900599 -2.03672157663
0.0 0.015 0.008 0 15 8 0.636993025973 0.737136423486 -1.22642903789
0.0 0.015 0.009000000000000001 0 15 9 0.419436293752 0.530258434028 -1.18924500761
0.0 0.015 0.01 0 15 10 0.401579587501 -0.217244978811 0.651842429722
0.0 0.015 0.011 0 15 11 0.525507130075 0.543775127591 1.06332551951
0.0 0.015 0.012 0 15 12 1.63783529154 -1.23537204376 -0.0393227916883
0.0 0.015 0.013000000000000001 0 15 13 2.45697954761 1.17792984526 -1.51365423512
0.0 0.015 0.014 0 15 14 -2.1931949224 -2.23533584263 -0.0744365277657
0.0 0.015 0.015 0 15 15 0.233042825467 -0.159158377739 0.782319119625
0.0 0.015 0.016 0 15 16 0.123304229433 1.90368562605 2.35723182767
0.0 0.015 0.017 0 15 17 0.172109662988 0.331940772778 0.292634434478
0.0 0.015 0.018000000000000002 0 15 18 0.773472330018 -1.56432718685 -1.35817951757
0.0 0.015 0.019 0 15 19 -0.0275355483814 1.19713169838 -0.568152602005
0.0 0.016 0.0 0 16 0 -0.612864428118 -0.0306570942562 0.474995788321
0.0 0.016 0.001 0 16 1 0.255722467373 -0.43939681898 1.50923759819
0.0 0.016 0.002 0 16 2 0.304146172789 -1.15372331315 -0.208070119044
0.0 0.016 0.003 0 16 3 0.0899938281374 -0.505248352045 -0.373988580745
0.0 0.016 0.004 0 16 4 0.601542902381 -0.0574462798843 0.297253093842
0.0 0.016 0.005 0 16 5 2.83605768239 -1.65194368395 0.621032766822
0.0 0.016 0.006 0 16 6 -0.250235122024 0.214474124031 -0.634047244061
0.0 0.016 0.007 0 16 7 -0.428057374892 -0.631549109866 -0.232294169888
0.0 0.016 0.008 0 16 8 -1.02763927677 -1.2718386572 -1.24267309887
0.0 0.016 0.009000000000000001 0 16 9 0.699904650065 -0.0581239889422 0.427967215833
0.0 0.016 0.01 0 16 10 -0.168543087711 -1.51691775873 0.0995395626652
0.0 0.016 0.011 0 16 11 0.466880816226 0.0336398087282 0.25547656367
0.0 0.016 0.012 0 16 12 -0.331256876261 0.793437396953 0.0609128046191
0.0 0.016 0.013000000000000001 0 16 13 -0.987225725704 0.865914752932 1.73145747005
0.0 0.016 0.014 0 16 14 -0.999209333015 -1.07476184326 -0.757866677497
0.0 0.016 0.015 0 16 15 2.15673790643 -0.192069455138 -1.37165782676
0.0 0.016 0.016 0 16 16 0.35764019039 0.157857070409 1.81072436062
0.0 0.016 0.017 0 16 17 0.103456932799 -0.564305691544 -0.158677231389
0.0 0.016 0.018000000000000002 0 16 18 -0.534626291095 -0.209280448438 1.08123205969
0.0 0.016 0.019 0 16 19 -0.502104129741 -0.965516539839 -2.25674940936
0.0 0.017 0.0 0 17 0 0.201382398504 -0.945397480633 1.86104489206
0.0 0.017 0.001 0 17 1 2.12960019924 -0.241142262432 -0.0344761986978
0.0 0.017 0.002 0 17 2 -0.585408876041 1.50813992788 0.0783659006124
0.0 0.017 0.003 0 17 3 0.811418545273 2.4275298683 -0.662942277194
0.0 0.017 0.004 0 17 4 0.495254012125 0.865885131623 -0.151221268384
0.0 0.017 0.005 0 17 5 -1.09035521056 -0.126776851504 -0.409630727373
0.0 0.017 0.006 0 17 6 -1.10367155316 0.62496831451 0.0351543393995
0.0 0.017 0.007 0 17 7 -0.619001539401 -0.238289159832 0.275771421656
0.0 0.017 0.008 0 17 8 -0.983004234675 0.295643429682 -0.25646205064
0.0 0.017 0.009000000000000001 0 17 9 -1.46625359197 0.232760338393 -0.909150936892
0.0 0.017 0.01 0 17 10 -0.448661209566 -0.821130977558 1.30070311978
0.0 0.017 0.011 0 17 11 0.60881785184 -0.0512132278608 -0.328262583585
0.0 0.017 0.012 0 17 12 -0.176222393399 -0.0527466174748 0.0198644245619
0.0 0.017 0.013000000000000001 0 17 13 0.368058141791 0.785490741279 -0.254245445125
0.0 0.017 0.014 0 17 14 -0.773248068905 -0.800977551693 -1.06701885398
0.0 0.017 0.015 0 17 15 0.233967014152 0.761556982352 -0.589018955243
0.0 0.017 0.016 0 17 16 -0.990910123538 0.338459965955 -0.267007259902
0.0 0.017 0.017 0 17 17 -0.429564085498 1.76292440484 1.18201537053
0.0 0.017 0.018000000000000002 0 17 18 0.211215000884 0.389536779052 -0.951398794975
0.0 0.017 0.019 0 17 19 -0.654090456584 -0.286901521769 2.1422989213
0.0 0.018000000000000002 0.0 0 18 0 -0.372270994289 1.066079957 1.19912120539
0.0 0.018000000000000002 0.001 0 18 1 -1.44790984883 0.940944755231 -1.39895560006
0.0 0.018000000000000002 0.002 0 18 2 -1.30943477421 0.372845878337 -0.193095001566
0.0 0.018000000000000002 0.003 0 18 3 -1.05276771653 -0.749055752517 -0.0219013414384
0.0 0.018000000000000002 0.004 0 18 4 -0.970075545506 -1.29542296117 0.750579672845
0.0 0.018000000000000002 0.005 0 18 5 -0.436865626709 0.493457924307 -0.0540035957671
0.0 0.018000000000000002 0.006 0 18 6 0.175387393602 1.09657448818 -0.904390140967
0.0 0.018000000000000002 0.007 0 18 7 0.557294678915 -0.243424678166 -0.605148079048
0.0 0.018000000000000002 0.008 0 18 8 0.349334647366 0.87996105019 0.840780814875
0.0 0.018000000000000002 0.009000000000000001 0 18 9 -0.591222166793 1.22903433032 1.04305897017
0.0 0.018000000000000002 0.01 0 18 10 -1.52155828616 0.62120093575 0.0454741115581
0.0 0.018000000000000002 0.011 0 18 11 0.0817538931716 -0.912281189813 0.640917743971
0.0 0.018000000000000002 0.012 0 18 12 1.09905404711 -0.364707917983 0.288063799853
0.0 0.018000000000000002 0.013000000000000001 0 18 13 -0.533940393526 0.69231031238 1.33430764445
0.0 0.018000000000000002 0.014 0 18 14 0.015057115643 0.453458037027 -0.758630733974
0.0 0.018000000000000002 0.015 0 18 15 -0.728312657555 0.754553140814 0.945189165354
0.0 0.018000000000000002 0.016 0 18 16 0.68275009234 -0.598576807621 -0.0203897499749
0.0 0.018000000000000002 0.017 0 18 17 1.02378738284 -0.38901413237 -1.53479719046
0.0 0.018000000000000002 0.018000000000000002 0 18 18 -0.0231495281311 -0.519618714419 -0.0831981538629
0.0 0.018000000000000002 0.019 0 18 19 -0.0206035838016 -0.48207547792 -1.0591557748
0.0 0.019 0.0 0 19 0 -1.30709209697 -1.03954282467 0.783806698195
0.0 0.019 0.001 0 19 1 0.176623801376 1.402283332 -0.844060510869
0.0 0.019 0.002 0 19 2 -0.661626255364 0.780584404387 0.429441448543
0.0 0.019 0.003 0 19 3 -1.09720406731 -0.493009464161 -0.380732880787
0.0 0.019 0.004 0 19 4 0.843651697219 -1.4575456929 1.59629243267
0.0 0.019 0.005 0 19 5 -0.346830925939 -0.353759277667 -0.605963042715
0.0 0.019 0.006 0 19 6 0.301893833888 -0.494134211284 -0.812175720789
0.0 0.019 0.007 0 19 7 -1.33275335028 -0.627881314012 0.515903328346
0.0 0.019 0.008 0 19 8 -0.109047741706 1.20213738463 0.770521770603
0.0 0.019 0.009000000000000001 0 19 9 0.530951765827 -0.865202385165 0.841944931631
0.0 0.019 0.01 0 19 10 -0.772658114604 0.359967918564 1.29578294499
0.0 0.019 0.011 0 19 11 -0.559808522112 0.522491122057 -1.5630879866
0.0 0.019 0.012 0 19 12 0.850268394347 0.209390441963 0.258425781718
0.0 0.019 0.013000000000000001 0 19 13 -0.678649398013 1.61543332476 1.15649855796
0.0 0.019 0.014 0 19 14 0.894410377373 1.47139484244 0.358875722261
0.0 0.019 0.015 0 19 15 -1.59454575698 -0.35703928322 0.420702734809
0.0 0.019 0.016 0 19 16 -0.0854251027729 -1.0435878733 -0.292476444368
0.0 0.019 0.017 0 19 17 0.85451241216 0.280467977898 -1.00442092135
0.0 0.019 0.018000000000000002 0 19 18 -1.50357165858 0.118760726976 0.208267627952
0.0 0.019 0.019 0 19 19 1.01229133732 -0.862571336671 0.80527619561
0.001 0.0 0.0 1 0 0 -0.94446352637 -0.164558506487 -0.200671047039
0.001 0.0 0.001 1 0 1 -1.05978792426 1.55983592623 -0.339377650665
0.001 0.0 0.002 1 0 2 1.2379359117 -0.813422139503 -0.251676973159
0.001 0.0 0.003 1 0 3 0.522632169972 0.281086310637 1.75479717367
0.001 0.0 0.004 1 0 4 -1.41932589333 0.157143705201 -0.348426286566
0.001 0.0 0.005 1 0 5 -0.762064724242 0.807686820251 0.408213170433
0.001 0.0 0.006 1 0 6 0.975333570371 -0.348940313149 -0.155243773608