VARIABLES = X Y Z I J K U V W VORT_X VORT_Y VORT_Z
ZONE I= 30 J= 30 K= 30
0.0 0.0 0.0 0 0 0 0.402752730655 -0.620711768061 0.238912343844 0.0 0.0 0.0
0.001 0.0 0.0 1 0 0 -0.304263119312 -0.864694132892 -0.702758706331 0.0 0.0 0.0
0.002 0.0 0.0 2 0 0 -0.696823848173 2.38714660299 -2.17301130922 0.0 0.0 0.0
0.003 0.0 0.0 3 0 0 0.338141820672 1.04496935689 -0.631443531412 0.0 0.0 0.0
0.004 0.0 0.0 4 0 0 -1.40359286491 1.78974164678 -0.387999556525 0.0 0.0 0.0
0.005 0.0 0.0 5 0 0 0.324531417305 -0.348774639834 -0.438826712309 0.0 0.0 0.0
0.006 0.0 0.0 6 0 0 -0.263491374645 0.4474146552 1.03685452416 0.0 0.0 0.0
0.007 0.0 0.0 7 0 0 1.18168476639 -0.233819991142 0.272551689493 0.0 0.0 0.0
0.008 0.0 0.0 8 0 0 -0.248912474408 -0.273262457805 -0.589736548363 0.0 0.0 0.0
0.009000000000000001 0.0 0.0 9 0 0 0.23629544774 0.506628092718 -1.96556554417 0.0 0.0 0.0
0.01 0.0 0.0 10 0 0 0.366376144528 0.958822307521 0.789472992291 0.0 0.0 0.0
0.011 0.0 0.0 11 0 0 1.98029333479 -1.27882187361 0.49113007894 0.0 0.0 0.0
0.012 0.0 0.0 12 0 0 1.12284237636 1.69339875753 -0.538820409642 0.0 0.0 0.0
0.013000000000000001 0.0 0.0 13 0 0 -1.20658490232 0.147312750778 -0.610354619555 0.0 0.0 0.0
0.014 0.0 0.0 14 0 0 0.867183961709 -0.280152276366 -1.0319223905 0.0 0.0 0.0
0.015 0.0 0.0 15 0 0 -0.61108772279 1.35465411593 0.583491011801 0.0 0.0 0.0
0.016 0.0 0.0 16 0 0 -0.0089904095519 -0.187647493936 0.291933932854 0.0 0.0 0.0
0.017 0.0 0.0 17 0 0 -1.65759996808 -0.349517405664 -1.25723793925 0.0 0.0 0.0
0.018000000000000002 0.0 0.0 18 0 0 0.548779675747 1.31681384069 -0.595798471522 0.0 0.0 0.0
0.019 0.0 0.0 19 0 0 -0.0906374109772 -1.27525073183 1.06510968971 0.0 0.0 0.0
0.02 0.0 0.0 20 0 0 0.500181845635 -0.29826830451 0.280058429789 0.0 0.0 0.0
0.021 0.0 0.0 21 0 0 -0.983880298504 -0.58175654443 -0.765469247362 0.0 0.0 0.0
0.022 0.0 0.0 22 0 0 0.0736368640843 -0.00139650852878 0.659817930614 0.0 0.0 0.0
0.023 0.0 0.0 23 0 0 -0.557326025591 0.073902874379 -0.140291868779 0.0 0.0 0.0
0.024 0.0 0.0 24 0 0 -0.281602039454 0.141442816372 -0.480173331921 0.0 0.0 0.0
0.025 0.0 0.0 25 0 0 -0.774181628942 1.95923178531 -1.21717195161 0.0 0.0 0.0
0.026000000000000002 0.0 0.0 26 0 0 -0.121924053896 0.633984227556 -0.351718805132 0.0 0.0 0.0
0.027 0.0 0.0 27 0 0 -0.238606264527 -2.18538082524 0.641129794565 0.0 0.0 0.0
0.028 0.0 0.0 28 0 0 2.09506412738 -1.17227429181 0.535427105858 0.0 0.0 0.0
0.029 0.0 0.0 29 0 0 0.569072051555 -0.481736719879 1.24726213144 0.0 0.0 0.0
0.0 0.001 0.0 0 1 0 0.33616843503 -1.38005065665 0.161369825278 0.0 0.0 0.0
0.001 0.001 0.0 1 1 0 -0.681198430195 1.13806285473 0.808737719358 0.0 0.0 0.0
0.002 0.001 0.0 2 1 0 1.11950891148 0.452941464514 0.246521436644 0.0 0.0 0.0
0.003 0.001 0.0 3 1 0 0.65903793838 -2.20912121084 1.70044486984 0.0 0.0 0.0
0.004 0.001 0.0 4 1 0 -1.12951013135 -2.06007386879 -1.07075351259 0.0 0.0 0.0
0.005 0.001 0.0 5 1 0 1.33430744437 0.701358687543 0.657665140197 0.0 0.0 0.0
0.006 0.001 0.0 6 1 0 1.48464158479 -0.531624567228 0.830031174385 0.0 0.0 0.0
0.007 0.001 0.0 7 1 0 -1.10993707144 -1.60078520782 1.80596346564 0.0 0.0 0.0
0.008 0.001 0.0 8 1 0 -0.90850774484 0.914454430137 -0.614755325234 0.0 0.0 0.0
0.009000000000000001 0.001 0.0 9 1 0 0.499727569227 0.0797515929825 0.592588919112 0.0 0.0 0.0
0.01 0.001 0.0 10 1 0 0.755006176816 0.185095874712 -1.22552229923 0.0 0.0 0.0
0.011 0.001 0.0 11 1 0 -0.700773172294 -0.384404750225 0.15288513253 0.0 0.0 0.0
0.012 0.001 0.0 12 1 0 -0.274755727373 -1.22754468379 -1.18894653423 0.0 0.0 0.0
0.013000000000000001 0.001 0.0 13 1 0 -1.89448791547 -0.429601342487 -1.98946915545 0.0 0.0 0.0
0.014 0.001 0.0 14 1 0 -1.37748106842 -0.0103147698574 0.437309610958 0.0 0.0 0.0
0.015 0.001 0.0 15 1 0 0.20959033221 1.17350862706 0.354243719485 0.0 0.0 0.0
0.016 0.001 0.0 16 1 0 -0.70770330418 0.138112493891 -1.02272682174 0.0 0.0 0.0
0.017 0.001 0.0 17 1 0 0.536517210621 -1.05942713425 -0.529109543907 0.0 0.0 0.0
0.018000000000000002 0.001 0.0 18 1 0 -0.627091235434 0.827730476954 -0.423466749061 0.0 0.0 0.0
0.019 0.001 0.0 19 1 0 -1.05250755682 -2.81856453386 -0.508639161065 0.0 0.0 0.0
0.02 0.001 0.0 20 1 0 -0.107482425002 -0.387739722738 1.07505852419 0.0 0.0 0.0
0.021 0.001 0.0 21 1 0 1.02585585151 1.1301395912 -0.187116970577 0.0 0.0 0.0
0.022 0.001 0.0 22 1 0 -0.144543236813 0.93761533497 0.498437804023 0.0 0.0 0.0
0.023 0.001 0.0 23 1 0 -0.746680874959 0.171077816571 -1.24350706604 0.0 0.0 0.0
0.024 0.001 0.0 24 1 0 -1.39414967352 0.148570811473 2.25822533665 0.0 0.0 0.0
0.025 0.001 0.0 25 1 0 0.0722035045033 -2.33218821838 -0.317914906692 0.0 0.0 0.0
0.026000000000000002 0.001 0.0 26 1 0 -0.913559295087 0.842842512131 -0.339328766571 0.0 0.0 0.0
0.027 0.001 0.0 27 1 0 -1.33403622755 0.240679396274 0.158415640098 0.0 0.0 0.0
0.028 0.001 0.0 28 1 0 0.20228923143 0.243191773222 1.06235084651 0.0 0.0 0.0
0.029 0.001 0.0 29 1 0 -1.49818568198 0.792245986367 0.496197548333 0.0 0.0 0.0
0.0 0.002 0.0 0 2 0 -0.304789885263 1.83676615355 -1.60695657938 0.0 0.0 0.0
0.001 0.002 0.0 1 2 0 -0.955922662158 -0.108996168754 -0.020018863039 0.0 0.0 0.0
0.002 0.002 0.0 2 2 0 -0.532939291892 0.536752300587 1.69642662721 0.0 0.0 0.0
0.003 0.002 0.0 3 2 0 -0.301196494388 -1.37320398617 -0.831293773016 0.0 0.0 0.0
0.004 0.002 0.0 4 2 0 -1.01984332488 0.764741232001 0.538518242837 0.0 0.0 0.0
0.005 0.002 0.0 5 2 0 -0.320912736531 0.16772768084 -0.371559876825 0.0 0.0 0.0
0.006 0.002 0.0 6 2 0 0.0790628177801 0.810352032579 -0.461577253431 0.0 0.0 0.0
0.007 0.002 0.0 7 2 0 0.471413935271 -1.67539673039 -0.541388877626 0.0 0.0 0.0
0.008 0.002 0.0 8 2 0 -0.602662097667 -0.576383275271 1.41558819114 0.0 0.0 0.0
0.009000000000000001 0.002 0.0 9 2 0 -0.861042096496 1.01603094205 -1.10448780744 0.0 0.0 0.0
0.01 0.002 0.0 10 2 0 0.991379372548 1.43176389812 -0.985643065836 0.0 0.0 0.0
0.011 0.002 0.0 11 2 0 -0.704858495972 0.0972364424425 -0.589404849913 0.0 0.0 0.0
0.012 0.002 0.0 12 2 0 0.660453552898 -0.830343715874 -1.32882409612 0.0 0.0 0.0
0.013000000000000001 0.002 0.0 13 2 0 0.480029037125 0.138809033463 0.69250736195 0.0 0.0 0.0
0.014 0.002 0.0 14 2 0 0.117562197926 -0.0329082015263 -0.0851019771192 0.0 0.0 0.0
0.015 0.002 0.0 15 2 0 0.750378924542 -0.111332969284 0.0256306007691 0.0 0.0 0.0
0.016 0.002 0.0 16 2 0 0.295271632845 1.84210438506 0.81358131973 0.0 0.0 0.0
0.017 0.002 0.0 17 2 0 1.19995500794 0.487695032944 0.811979644618 0.0 0.0 0.0
0.018000000000000002 0.002 0.0 18 2 0 -1.75123315021 -0.882516024915 -0.740016606894 0.0 0.0 0.0
0.019 0.002 0.0 19 2 0 0.317729242126 -0.373835549714 0.260484846392 0.0 0.0 0.0
0.02 0.002 0.0 20 2 0 -0.750081896492 -0.288721599239 -0.0378891521374 0.0 0.0 0.0
0.021 0.002 0.0 21 2 0 -1.11084667243 0.11261118156 -1.27483146912 0.0 0.0 0.0
0.022 0.002 0.0 22 2 0 1.10989063265 -0.560578231604 1.27927465399 0.0 0.0 0.0
0.023 0.002 0.0 23 2 0 -1.59017052212 -0.182557260911 0.547208758804 0.0 0.0 0.0
0.024 0.002 0.0 24 2 0 0.786029675617 1.41096837232 -1.94198789983 0.0 0.0 0.0
0.025 0.002 0.0 25 2 0 0.0973334045955 -1.15713191021 -0.400165205457 0.0 0.0 0.0
0.026000000000000002 0.002 0.0 26 2 0 -0.0734253346481 0.650125188445 0.119124754203 0.0 0.0 0.0
0.027 0.002 0.0 27 2 0 -1.27866835277 -0.803699701278 -1.06339143825 0.0 0.0 0.0
0.028 0.002 0.0 28 2 0 -1.29797353596 0.400879569034 -0.401744892362 0.0 0.0 0.0
0.029 0.002 0.0 29 2 0 1.33670623002 0.293823706 -0.616001787208 0.0 0.0 0.0
0.0 0.003 0.0 0 3 0 0.817331341688 0.928539997567 0.976784521251 0.0 0.0 0.0
0.001 0.003 0.0 1 3 0 0.759525128445 0.384925468877 1.05744556099 0.0 0.0 0.0
0.002 0.003 0.0 2 3 0 0.322499547343 -0.680764530633 0.0533403489906 0.0 0.0 0.0
0.003 0.003 0.0 3 3 0 -2.38112884492 1.79164583769 -0.392395249456 0.0 0.0 0.0
0.004 0.003 0.0 4 3 0 -0.299825348603 0.754439375213 -0.334767649486 0.0 0.0 0.0
0.005 0.003 0.0 5 3 0 1.74922424885 0.595640568097 0.642773592592 0.0 0.0 0.0
0.006 0.003 0.0 6 3 0 1.23321479212 0.745363141129 0.545818886524 0.0 0.0 0.0
0.007 0.003 0.0 7 3 0 -1.139183042 2.21064975852 -0.0631034936763 0.0 0.0 0.0
0.008 0.003 0.0 8 3 0 0.248346046691 -0.134324048299 0.472839915293 0.0 0.0 0.0
0.009000000000000001 0.003 0.0 9 3 0 2.58500327473 0.0229390672686 -0.195428089819 0.0 0.0 0.0
0.01 0.003 0.0 10 3 0 1.798810047 1.81771987274 -0.817662880414 0.0 0.0 0.0
0.011 0.003 0.0 11 3 0 0.40911211074 0.628664931708 0.597454836601 0.0 0.0 0.0
0.012 0.003 0.0 12 3 0 0.297898530998 -0.294575573308 -1.49841211175 0.0 0.0 0.0
0.013000000000000001 0.003 0.0 13 3 0 0.684824280729 -1.15439582564 0.165066013699 0.0 0.0 0.0
0.014 0.003 0.0 14 3 0 2.49287853948 -1.5403115641 0.8853412352 0.0 0.0 0.0
0.015 0.003 0.0 15 3 0 1.47058113552 -1.81271802099 -0.605169034853 0.0 0.0 0.0
0.016 0.003 0.0 16 3 0 0.688736852073 1.11665536828 -0.780726094575 0.0 0.0 0.0
0.017 0.003 0.0 17 3 0 -0.507520307899 -0.451684277041 -0.547443388344 0.0 0.0 0.0
0.018000000000000002 0.003 0.0 18 3 0 -0.308590375687 0.60127239622 2.02807571065 0.0 0.0 0.0
0.019 0.003 0.0 19 3 0 0.417986342794 -0.896105292548 -0.273259577974 0.0 0.0 0.0
0.02 0.003 0.0 20 3 0 -3.75165050914 0.237301312358 -0.444299073873 0.0 0.0 0.0
0.021 0.003 0.0 21 3 0 0.091788213194 -0.0421992655698 -0.162030702185 0.0 0.0 0.0
0.022 0.003 0.0 22 3 0 0.0970265241297 -1.43015384165 1.68523829729 0.0 0.0 0.0
0.023 0.003 0.0 23 3 0 1.58873919286 0.683921123772 -0.4123378647 0.0 0.0 0.0
0.024 0.003 0.0 24 3 0 0.429221186747 -0.261483185797 -0.576184231896 0.0 0.0 0.0
0.025 0.003 0.0 25 3 0 -0.191101576298 0.310323551677 -0.655831485255 0.0 0.0 0.0
0.026000000000000002 0.003 0.0 26 3 0 -0.987974174124 1.05698847768 -0.505373318894 0.0 0.0 0.0
0.027 0.003 0.0 27 3 0 -1.12309596171 -0.485319009697 0.969766976952 0.0 0.0 0.0
0.028 0.003 0.0 28 3 0 0.392473639822 -0.630526370902 -0.251924123259 0.0 0.0 0.0
0.029 0.003 0.0 29 3 0 -1.10343199131 0.880503368735 1.91518682307 0.0 0.0 0.0
0.0 0.004 0.0 0 4 0 0.425529204228 -0.44390919921 -0.894285319276 0.0 0.0 0.0
0.001 0.004 0.0 1 4 0 -0.452578007585 0.374629734866 2.15798072664 0.0 0.0 0.0
0.002 0.004 0.0 2 4 0 -1.08183543879 -1.05674232674 0.0680726320017 0.0 0.0 0.0
0.003 0.004 0.0 3 4 0 -0.648899915396 0.477690021492 0.97400141434 0.0 0.0 0.0
0.004 0.004 0.0 4 4 0 2.26642944629 1.10264939096 1.09282169769 0.0 0.0 0.0
0.005 0.004 0.0 5 4 0 -0.28621469819 -0.515927876021 -0.395715336997 0.0 0.0 0.0
0.006 0.004 0.0 6 4 0 1.05636763901 2.36855719019 0.893528716337 0.0 0.0 0.0
0.007 0.004 0.0 7 4 0 1.57904508798 -0.228808356584 -0.439084771007 0.0 0.0 0.0
0.008 0.004 0.0 8 4 0 0.051513493401 0.479084911665 0.533085353763 0.0 0.0 0.0
0.009000000000000001 0.004 0.0 9 4 0 -1.5876659413 0.0219523531597 -1.2036677281 0.0 0.0 0.0
0.01 0.004 0.0 10 4 0 -0.930859504981 -1.16721282925 -1.55124956645 0.0 0.0 0.0
0.011 0.004 0.0 11 4 0 0.108924711409 -1.38732690458 0.791048123363 0.0 0.0 0.0
0.012 0.004 0.0 12 4 0 -1.23365785351 -1.53930313638 0.646961097942 0.0 0.0 0.0
0.013000000000000001 0.004 0.0 13 4 0 -0.530143402121 -0.434643919991 -2.51861379078 0.0 0.0 0.0
0.014 0.004 0.0 14 4 0 -1.43660431146 0.689459514349 -0.267577426008 0.0 0.0 0.0
0.015 0.004 0.0 15 4 0 1.28805342278 1.54855904233 0.235522559327 0.0 0.0 0.0
0.016 0.004 0.0 16 4 0 0.748299436352 -1.92929806517 0.970701309561 0.0 0.0 0.0
0.017 0.004 0.0 17 4 0 1.02919883079 0.164776510014 0.591772818732 0.0 0.0 0.0
0.018000000000000002 0.004 0.0 18 4 0 -1.52611200317 0.0861241309522 0.170667721702 0.0 0.0 0.0
0.019 0.004 0.0 19 4 0 3.089023569 0.120493327842 -1.81088248259 0.0 0.0 0.0
0.02 0.004 0.0 20 4 0 1.41979029828 0.446958871976 -0.487837305141 0.0 0.0 0.0
0.021 0.004 0.0 21 4 0 0.876846727058 0.361886924483 -0.273326190238 0.0 0.0 0.0
0.022 0.004 0.0 22 4 0 -1.57539289102 0.843077897445 -0.409708890569 0.0 0.0 0.0
0.023 0.004 0.0 23 4 0 0.497711010448 -0.845013219169 -0.496352122323 0.0 0.0 0.0
0.024 0.004 0.0 24 4 0 -2.06947342632 -0.510914133568 -0.532436299912 0.0 0.0 0.0
0.025 0.004 0.0 25 4 0 0.349384799657 -1.93521833282 -1.66080850921 0.0 0.0 0.0
0.026000000000000002 0.004 0.0 26 4 0 1.70645370229 -0.386705434173 0.761288952115 0.0 0.0 0.0
0.027 0.004 0.0 27 4 0 0.529333159816 -0.959059445306 -0.0125776096559 0.0 0.0 0.0
0.028 0.004 0.0 28 4 0 0.868359872743 -0.338916678912 0.165215464684 0.0 0.0 0.0
0.029 0.004 0.0 29 4 0 -0.497507371164 -0.822089891187 0.16148724672 0.0 0.0 0.0
0.0 0.005 0.0 0 5 0 1.14585906044 1.84782817925 0.47467541198 0.0 0.0 0.0
0.001 0.005 0.0 1 5 0 -1.01635558934 -2.64116358868 -0.955571269815 0.0 0.0 0.0
0.002 0.005 0.0 2 5 0 -0.181987552172 0.159822561707 1.82465724577 0.0 0.0 0.0
0.003 0.005 0.0 3 5 0 -1.00414835993 -0.121177132143 1.67702072664 0.0 0.0 0.0
0.004 0.005 0.0 4 5 0 0.650133391942 0.307251661486 0.684095973566 0.0 0.0 0.0
0.005 0.005 0.0 5 5 0 -0.14577057545 0.530835660422 -1.19011389881 0.0 0.0 0.0
0.006 0.005 0.0 6 5 0 -1.14014839563 1.19939464048 -0.900368696845 0.0 0.0 0.0
0.007 0.005 0.0 7 5 0 -1.17040585875 0.128888111368 1.04082940676 0.0 0.0 0.0
0.008 0.005 0.0 8 5 0 0.601146896239 -1.95311740496 0.565979067713 0.0 0.0 0.0
0.009000000000000001 0.005 0.0 9 5 0 -0.261895990486 0.406810369625 -0.404287316204 0.0 0.0 0.0
0.01 0.005 0.0 10 5 0 -0.231109604361 0.449803703872 0.658933555094 0.0 0.0 0.0
0.011 0.005 0.0 11 5 0 0.440341228321 -0.200237973484 0.31807398385 0.0 0.0 0.0
0.012 0.005 0.0 12 5 0 0.691298413091 -0.85914803439 -1.28364492866 0.0 0.0 0.0
0.013000000000000001 0.005 0.0 13 5 0 1.61230747494 -0.0992893285765 -1.00395608689 0.0 0.0 0.0
0.014 0.005 0.0 14 5 0 0.529183466915 -0.0159408534361 -0.766087223476 0.0 0.0 0.0
0.015 0.005 0.0 15 5 0 -0.856805967629 0.0917964950435 0.240417656775 0.0 0.0 0.0
0.016 0.005 0.0 16 5 0 0.228446724537 -1.27112410963 -0.275175694591 0.0 0.0 0.0
0.017 0.005 0.0 17 5 0 -0.112756115438 -0.883448377392 -0.236853256683 0.0 0.0 0.0
0.018000000000000002 0.005 0.0 18 5 0 1.47165627546 0.273358686443 -1.45817536957 0.0 0.0 0.0
0.019 0.005 0.0 19 5 0 0.45773029209 1.10992582119 -0.268375592031 0.0 0.0 0.0
0.02 0.005 0.0 20 5 0 0.47574135628 -0.0428701500195 -0.0587816048114 0.0 0.0 0.0
0.021 0.005 0.0 21 5 0 -1.64279396246 -0.282265042403 0.293710810128 0.0 0.0 0.0
0.022 0.005 0.0 22 5 0 0.119785465192 1.07077910734 0.359872455173 0.0 0.0 0.0
0.023 0.005 0.0 23 5 0 -0.355419437031 0.209432916426 -1.29921241979 0.0 0.0 0.0
0.024 0.005 0.0 24 5 0 -0.443455036701 -0.235632078212 -0.272431412498 0.0 0.0 0.0
0.025 0.005 0.0 25 5 0 -2.09240249534 -0.436296298985 1.55408570589 0.0 0.0 0.0
0.026000000000000002 0.005 0.0 26 5 0 -0.177615351881 0.851939878507 0.620875756288 0.0 0.0 0.0
0.027 0.005 0.0 27 5 0 -0.491542366441 -1.01514108552 -0.760155881187 0.0 0.0 0.0
0.028 0.005 0.0 28 5 0 1.4027801531 1.29699207711 -0.0994503280708 0.0 0.0 0.0
0.029 0.005 0.0 29 5 0 0.489044893761 0.0665727835089 0.77450834186 0.0 0.0 0.0
0.0 0.006 0.0 0 6 0 0.822013260165 -0.0650109682886 0.909963640833 0.0 0.0 0.0
0.001 0.006 0.0 1 6 0 -0.297461965298 0.481948582963 -1.3903742421 0.0 0.0 0.0
0.002 0.006 0.0 2 6 0 -0.109361000962 -0.782709698624 0.51572125007 0.0 0.0 0.0
0.003 0.006 0.0 3 6 0 -0.761546618693 0.830933345349 0.929628364903 0.0 0.0 0.0
0.004 0.006 0.0 4 6 0 -0.556450724067 0.873224513269 0.96695109885 0.0 0.0 0.0
0.005 0.006 0.0 5 6 0 0.396412453735 -1.65918190664 -0.983740305333 0.0 0.0 0.0
0.006 0.006 0.0 6 6 0 1.25902268569 -0.78747338684 -1.65929460341 0.0 0.0 0.0
0.007 0.006 0.0 7 6 0 0.839292373027 0.394456580945 -0.322183966506 0.0 0.0 0.0
0.008 0.006 0.0 8 6 0 -0.882202420165 -1.49716314411 0.462390003235 0.0 0.0 0.0
0.009000000000000001 0.006 0.0 9 6 0 1.24563959329 0.726156382751 -0.515001986329 0.0 0.0 0.0
0.01 0.006 0.0 10 6 0 0.345605052996 1.55683632056 -1.46216213137 0.0 0.0 0.0
0.011 0.006 0.0 11 6 0 1.26872334081 -0.108699217082 -0.735536894638 0.0 0.0 0.0
0.012 0.006 0.0 12 6 0 -0.259304216523 0.0948087096607 1.5199868869 0.0 0.0 0.0
0.013000000000000001 0.006 0.0 13 6 0 -0.818303875435 0.106448714513 -1.60357851881 0.0 0.0 0.0
0.014 0.006 0.0 14 6 0 -1.97142984235 0.542633608446 1.09220637904 0.0 0.0 0.0
0.015 0.006 0.0 15 6 0 0.197157557267 0.313534684081 -0.104111558452 0.0 0.0 0.0
0.016 0.006 0.0 16 6 0 -0.362986417575 1.03996056035 -0.810418929968 0.0 0.0 0.0
0.017 0.006 0.0 17 6 0 0.230619203421 0.716139258541 -0.52256622564 0.0 0.0 0.0
0.018000000000000002 0.006 0.0 18 6 0 -0.292782359741 -0.796362705476 -0.459944487787 0.0 0.0 0.0
0.019 0.006 0.0 19 6 0 -2.40991854172 0.798765786372 -0.918270618973 0.0 0.0 0.0
0.02 0.006 0.0 20 6 0 1.01888458666 -1.74765992129 1.09007288301 0.0 0.0 0.0
0.021 0.006 0.0 21 6 0 -0.325475981003 0.819213204322 0.145876295509 0.0 0.0 0.0
0.022 0.006 0.0 22 6 0 -0.678243364609 0.391489763199 -1.47780158414 0.0 0.0 0.0
0.023 0.006 0.0 23 6 0 1.32219272975 0.615218135529 -0.757558651901 0.0 0.0 0.0
0.024 0.006 0.0 24 6 0 0.284980806712 0.234205988229 -0.959976734239 0.0 0.0 0.0
0.025 0.006 0.0 25 6 0 -0.850485481816 0.275708360743 -0.939044433458 0.0 0.0 0.0
0.026000000000000002 0.006 0.0 26 6 0 0.533522990914 -0.479924762698 -0.154832134737 0.0 0.0 0.0
0.027 0.006 0.0 27 6 0 2.15927616178 -0.0167172866886 0.778158931343 0.0 0.0 0.0
0.028 0.006 0.0 28 6 0 0.385264020825 1.16163116364 0.929583026197 0.0 0.0 0.0
0.029 0.006 0.0 29 6 0 1.28086594536 0.132692203526 0.484959657056 0.0 0.0 0.0
0.0 0.007 0.0 0 7 0 1.09857572468 -0.696769908599 -0.231141165269 0.0 0.0 0.0
0.001 0.007 0.0 1 7 0 -0.78804640734 0.0809368442084 0.788059951214 0.0 0.0 0.0
0.002 0.007 0.0 2 7 0 0.496703503949 -0.754637165359 -0.422231918401 0.0 0.0 0.0
0.003 0.007 0.0 3 7 0 -0.500960927969 1.4057786682 -0.907759231833 0.0 0.0 0.0
0.004 0.007 0.0 4 7 0 2.28397505313 -1.65201500195 -1.15321267475 0.0 0.0 0.0
0.005 0.007 0.0 5 7 0 0.936586393073 -0.42194505486 0.887036768062 0.0 0.0 0.0
0.006 0.007 0.0 6 7 0 -0.0689125401137 -0.952938571624 -0.906073969929 0.0 0.0 0.0
0.007 0.007 0.0 7 7 0 1.5491173099 0.283039561136 -0.066868015519 0.0 0.0 0.0
0.008 0.007 0.0 8 7 0 -0.558230580942 1.11764063326 -0.184486213414 0.0 0.0 0.0
0.009000000000000001 0.007 0.0 9 7 0 0.264385498297 0.780055746829 -0.254659222743 0.0 0.0 0.0
0.01 0.007 0.0 10 7 0 0.274880986602 -1.16596045909 -1.18287304455 0.0 0.0 0.0
0.011 0.007 0.0 11 7 0 0.582595918803 -0.877306807708 0.232462857577 0.0 0.0 0.0
0.012 0.007 0.0 12 7 0 1.49396814244 -0.914542096519 0.96214455606 0.0 0.0 0.0
0.013000000000000001 0.007 0.0 13 7 0 0.342703789184 0.423243942129 0.203710172771 0.0 0.0 0.0
0.014 0.007 0.0 14 7 0 2.00453600128 -0.309201077168 0.106216719263 0.0 0.0 0.0
0.015 0.007 0.0 15 7 0 -0.341470474302 -0.430246225226 -0.404518739368 0.0 0.0 0.0
0.016 0.007 0.0 16 7 0 0.215693225085 1.3870403325 -0.0956469407911 0.0 0.0 0.0
0.017 0.007 0.0 17 7 0 1.48690917521 0.614517232691 0.486202138597 0.0 0.0 0.0
0.018000000000000002 0.007 0.0 18 7 0 -0.591345589897 1.49883875189 -0.855804961971 0.0 0.0 0.0
0.019 0.007 0.0 19 7 0 -0.0176770831255 0.720309139024 1.77211656836 0.0 0.0 0.0
0.02 0.007 0.0 20 7 0 0.90925122046 -0.0601750848557 -0.533941281131 0.0 0.0 0.0
0.021 0.007 0.0 21 7 0 0.112406658657 -1.04767091551 0.722962617795 0.0 0.0 0.0
0.022 0.007 0.0 22 7 0 0.383757472592 1.20899314707 0.582990493695 0.0 0.0 0.0
0.023 0.007 0.0 23 7 0 0.738526048461 -2.00256783381 -1.17525409368 0.0 0.0 0.0
0.024 0.007 0.0 24 7 0 -0.261766049236 -0.639760001567 2.32657431356 0.0 0.0 0.0
0.025 0.007 0.0 25 7 0 0.363113467993 -0.147087592557 1.59726351031 0.0 0.0 0.0
0.026000000000000002 0.007 0.0 26 7 0 1.09597710956 -0.184392553129 1.40037439373 0.0 0.0 0.0
0.027 0.007 0.0 27 7 0 0.385265495829 2.1710337204 0.422278469134 0.0 0.0 0.0
0.028 0.007 0.0 28 7 0 1.07988040737 -1.6281303366 1.53853480379 0.0 0.0 0.0
0.029 0.007 0.0 29 7 0 0.466704440398 0.849187076546 1.3533396279 0.0 0.0 0.0
0.0 0.008 0.0 0 8 0 -1.15113295086 -0.596750297918 0.444207242685 0.0 0.0 0.0
0.001 0.008 0.0 1 8 0 -0.855691162014 0.803181486509 1.73857983399 0.0 0.0 0.0
0.002 0.008 0.0 2 8 0 -2.22260943349 -1.06874608854 -0.977939320051 0.0 0.0 0.0
0.003 0.008 0.0 3 8 0 0.487230526234 -1.98051927308 0.313053380223 0.0 0.0 0.0
0.004 0.008 0.0 4 8 0 0.0917785296058 0.698192537183 -0.287920258237 0.0 0.0 0.0
0.005 0.008 0.0 5 8 0 0.797756669489 0.0508464826211 -0.515831995303 0.0 0.0 0.0
0.006 0.008 0.0 6 8 0 0.170463167643 0.260940248975 -1.54980797993 0.0 0.0 0.0
0.007 0.008 0.0 7 8 0 1.78409776893 -2.68362148919 0.388877334135 0.0 0.0 0.0
0.008 0.008 0.0 8 8 0 -0.681827256288 -0.541811600165 1.64259831626 0.0 0.0 0.0
0.009000000000000001 0.008 0.0 9 8 0 1.01030822725 1.12595722409 -0.872677675494 0.0 0.0 0.0
0.01 0.008 0.0 10 8 0 1.23596222867 -0.0959333525061 0.775804397297 0.0 0.0 0.0
0.011 0.008 0.0 11 8 0 1.2256991786 0.732061786023 -1.16356273031 0.0 0.0 0.0
0.012 0.008 0.0 12 8 0 0.448312599779 0.601626674956 -1.08076534924 0.0 0.0 0.0
0.013000000000000001 0.008 0.0 13 8 0 -1.87698143673 -0.783530389033 -0.0211224424579 0.0 0.0 0.0
0.014 0.008 0.0 14 8 0 -0.216990795946 0.269058010273 0.461505664507 0.0 0.0 0.0
0.015 0.008 0.0 15 8 0 0.0618340940037 0.508238883032 0.207632807064 0.0 0.0 0.0
0.016 0.008 0.0 16 8 0 0.665410863397 -0.745766747195 0.404455894643 0.0 0.0 0.0
0.017 0.008 0.0 17 8 0 -1.00225976068 0.92616509381 0.522310867683 0.0 0.0 0.0
0.018000000000000002 0.008 0.0 18 8 0 -0.702930309121 0.424336981043 -1.21534435932 0.0 0.0 0.0
0.019 0.008 0.0 19 8 0 0.0132873814722 1.16944705664 0.591953814315 0.0 0.0 0.0
0.02 0.008 0.0 20 8 0 0.731051782368 0.191978362636 1.15971365038 0.0 0.0 0.0
0.021 0.008 0.0 21 8 0 2.26681327712 -1.3380306716 0.814869533766 0.0 0.0 0.0
0.022 0.008 0.0 22 8 0 -1.73133581844 -0.394989242743 1.61635054958 0.0 0.0 0.0
0.023 0.008 0.0 23 8 0 -1.90555054012 0.867967544318 -0.106261735366 0.0 0.0 0.0
0.024 0.008 0.0 24 8 0 -0.682829056111 0.135844910156 -0.000744008890285 0.0 0.0 0.0
0.025 0.008 0.0 25 8 0 -3.99892957908 -0.984405891737 -0.455817168418 0.0 0.0 0.0
0.026000000000000002 0.008 0.0 26 8 0 -0.0676192027436 -1.72465481269 -1.55117730653 0.0 0.0 0.0
0.027 0.008 0.0 27 8 0 0.531882539919 1.22838470498 0.209853583499 0.0 0.0 0.0
0.028 0.008 0.0 28 8 0 -0.95274162078 1.85097592487 0.159244403285 0.0 0.0 0.0
0.029 0.008 0.0 29 8 0 0.653211242288 -0.743220621513 0.902629756486 0.0 0.0 0.0
0.0 0.009000000000000001 0.0 0 9 0 0.927992223553 0.878286588767 0.456818466151 0.0 0.0 0.0
0.001 0.009000000000000001 0.0 1 9 0 -0.600591864046 -0.850723433367 -1.06258225505 0.0 0.0 0.0
0.002 0.009000000000000001 0.0 2 9 0 0.278664978767 -0.930803721947 0.778718831151 0.0 0.0 0.0
0.003 0.009000000000000001 0.0 3 9 0 0.986915959725 0.198951742828 -0.284438323768 0.0 0.0 0.0
0.004 0.009000000000000001 0.0 4 9 0 -0.530055202916 1.86120737287 -0.392126805813 0.0 0.0 0.0
0.005 0.009000000000000001 0.0 5 9 0 2.02475934541 -1.6091191177 0.121838224063 0.0 0.0 0.0
0.006 0.009000000000000001 0.0 6 9 0 -1.42043312828 -2.34428607872 2.00814253645 0.0 0.0 0.0
0.007 0.009000000000000001 0.0 7 9 0 0.296508876615 0.330972143349 -1.06521533912 0.0 0.0 0.0
0.008 0.009000000000000001 0.0 8 9 0 -0.473723483347 0.307906915028 1.50666932059 0.0 0.0 0.0
0.009000000000000001 0.009000000000000001 0.0 9 9 0 -0.327343442597 -0.336356644375 -1.1277318996 0.0 0.0 0.0
0.01 0.009000000000000001 0.0 10 9 0 0.0240480787974 0.323087640569 -1.04751696109 0.0 0.0 0.0
0.011 0.009000000000000001 0.0 11 9 0 1.11609091008 0.59843339597 -0.511954014364 0.0 0.0 0.0
0.012 0.009000000000000001 0.0 12 9 0 1.36163161501 1.73512364527 -1.07627579615 0.0 0.0 0.0
0.013000000000000001 0.009000000000000001 0.0 13 9 0 -0.266386518871 1.38969755971 1.07739999109 0.0 0.0 0.0
0.014 0.009000000000000001 0.0 14 9 0 -0.582591845001 -0.523041511075 0.382068773931 0.0 0.0 0.0
0.015 0.009000000000000001 0.0 15 9 0 0.222367233513 -0.180842913044 -0.379754225737 0.0 0.0 0.0
0.016 0.009000000000000001 0.0 16 9 0 -0.0375427438302 -1.56015009326 0.605013587058 0.0 0.0 0.0
0.017 0.009000000000000001 0.0 17 9 0 -1.21129110777 -0.815224506149 0.368276621364 0.0 0.0 0.0
0.018000000000000002 0.009000000000000001 0.0 18 9 0 -1.39178819022 -0.520049495399 1.3455930178 0.0 0.0 0.0
0.019 0.009000000000000001 0.0 19 9 0 0.569571531574 1.71582336447 -1.28077929852 0.0 0.0 0.0
0.02 0.009000000000000001 0.0 20 9 0 -0.413613566635 -2.29803720997 -2.39651330067 0.0 0.0 0.0
0.021 0.009000000000000001 0.0 21 9 0 0.809740009889 0.9620926307 0.886246664376 0.0 0.0 0.0
0.022 0.009000000000000001 0.0 22 9 0 -1.39873222661 0.231369307791 -0.701804732283 0.0 0.0 0.0
0.023 0.009000000000000001 0.0 23 9 0 0.33852165409 1.11210404343 -0.006056956477 0.0 0.0 0.0
0.024 0.009000000000000001 0.0 24 9 0 -0.260075052441 0.158089003437 -0.947374009722 0.0 0.0 0.0
0.025 0.009000000000000001 0.0 25 9 0 -0.213436422 0.0075057653461 0.767206982827 0.0 0.0 0.0
0.026000000000000002 0.009000000000000001 0.0 26 9 0 0.498445489401 1.43492842083 2.030602831 0.0 0.0 0.0
0.027 0.009000000000000001 0.0 27 9 0 -1.0860467915 1.10678880839 -0.104870847233 0.0 0.0 0.0
0.028 0.009000000000000001 0.0 28 9 0 0.679071086141 0.97173065271 -0.38115878103 0.0 0.0 0.0
0.029 0.009000000000000001 0.0 29 9 0 -2.0043509158 1.70493565014 0.824723607825 0.0 0.0 0.0
0.0 0.01 0.0 0 10 0 0.344182576047 -0.560096913157 -0.0102835923794 0.0 0.0 0.0
0.001 0.01 0.0 1 10 0 -0.155065771639 -2.56437672693 0.373416515443 0.0 0.0 0.0
0.002 0.01 0.0 2 10 0 0.281025763168 2.34796772448 -0.899067959082 0.0 0.0 0.0
0.003 0.01 0.0 3 10 0 1.10221120556 -1.09154059558 -0.909309247897 0.0 0.0 0.0
0.004 0.01 0.0 4 10 0 -0.776570642798 -0.702420469839 -0.192787582681 0.0 0.0 0.0
0.005 0.01 0.0 5 10 0 -0.0681141561692 0.579071526785 -0.129898719705 0.0 0.0 0.0
0.006 0.01 0.0 6 10 0 -1.28012095366 2.30309837259 -0.763317935773 0.0 0.0 0.0
0.007 0.01 0.0 7 10 0 1.13357207433 -0.671987567562 0.681692724358 0.0 0.0 0.0
0.008 0.01 0.0 8 10 0 0.0722553313075 -1.06075927041 -0.318891488267 0.0 0.0 0.0
0.009000000000000001 0.01 0.0 9 10 0 1.82338519593 0.548790477027 -1.23875020671 0.0 0.0 0.0
0.01 0.01 0.0 10 10 0 -2.22635611764 -2.11487661423 0.322810103289 0.0 0.0 0.0
0.011 0.01 0.0 11 10 0 -1.28934786537 -1.78231860883 -0.135322079301 0.0 0.0 0.0
0.012 0.01 0.0 12 10 0 0.748630101821 -0.721352452167 -1.84158200398 0.0 0.0 0.0
0.013000000000000001 0.01 0.0 13 10 0 -1.84601764434 -0.637184632814 0.467587631801 0.0 0.0 0.0
0.014 0.01 0.0 14 10 0 -1.50707506617 1.89992852802 0.448084947908 0.0 0.0 0.0
0.015 0.01 0.0 15 10 0 -1.35503395189 0.343074367494 0.74907766741 0.0 0.0 0.0
0.016 0.01 0.0 16 10 0 0.956985831469 0.498047960632 -0.491640536667 0.0 0.0 0.0
0.017 0.01 0.0 17 10 0 -0.24559369801 0.753843120217 0.441848256614 0.0 0.0 0.0
0.018000000000000002 0.01 0.0 18 10 0 0.778071708258 -1.04262780024 1.42867050668 0.0 0.0 0.0
0.019 0.01 0.0 19 10 0 0.499477033584 2.31534447912 2.24681670516 0.0 0.0 0.0
0.02 0.01 0.0 20 10 0 1.01128598062 0.292482703508 1.69254130699 0.0 0.0 0.0
0.021 0.01 0.0 21 10 0 -1.82595202623 0.993387316751 -0.209049443699 0.0 0.0 0.0
0.022 0.01 0.0 22 10 0 0.0300595980193 -1.56562988908 -1.14926950517 0.0 0.0 0.0
0.023 0.01 0.0 23 10 0 -1.12503567627 -0.238620393018 0.945536642103 0.0 0.0 0.0
0.024 0.01 0.0 24 10 0 -0.313511911064 -0.244207182062 -0.389964263521 0.0 0.0 0.0
0.025 0.01 0.0 25 10 0 -1.896989831 0.274085682897 -0.219043838716 0.0 0.0 0.0
0.026000000000000002 0.01 0.0 26 10 0 -0.686039081151 1.29655209894 -0.512163218133 0.0 0.0 0.0
0.027 0.01 0.0 27 10 0 0.701543260001 -0.531274512569 0.875301215266 0.0 0.0 0.0
0.028 0.01 0.0 28 10 0 1.06888799271 0.131697688828 -0.978739632949 0.0 0.0 0.0
0.029 0.01 0.0 29 10 0 0.223549148411 0.93557883168 -0.108749397453 0.0 0.0 0.0
0.0 0.011 0.0 0 11 0 -0.653606527708 -0.176493679517 1.31830854839 0.0 0.0 0.0
0.001 0.011 0.0 1 11 0 1.93236441092 -0.380833047429 0.163430534461 0.0 0.0 0.0
0.002 0.011 0.0 2 11 0 -0.873273371827 0.164972975287 0.471685473169 0.0 0.0 0.0
0.003 0.011 0.0 3 11 0 -0.958258382409 -0.936104223083 0.351384611456 0.0 0.0 0.0
0.004 0.011 0.0 4 11 0 -0.514981676453 -2.26827717449 -1.18970814379 0.0 0.0 0.0
0.005 0.011 0.0 5 11 0 0.153312364188 -1.58847365928 -0.326710003673 0.0 0.0 0.0
0.006 0.011 0.0 6 11 0 -0.401497529019 2.18379923809 0.757596788888 0.0 0.0 0.0
0.007 0.011 0.0 7 11 0 0.862149378178 0.867011469449 0.0856457092501 0.0 0.0 0.0
0.008 0.011 0.0 8 11 0 1.02761700982 -0.76212536098 1.75337975616 0.0 0.0 0.0
0.009000000000000001 0.011 0.0 9 11 0 -1.18602811164 -0.360684471266 0.0243495681512 0.0 0.0 0.0
0.01 0.011 0.0 10 11 0 -0.198383011826 -0.962942761619 -0.624723345462 0.0 0.0 0.0
0.011 0.011 0.0 11 11 0 1.31546628076 0.55973371049 1.17464333336 0.0 0.0 0.0
0.012 0.011 0.0 12 11 0 -1.41605091747 1.39548287131 -0.0643335501755 0.0 0.0 0.0
0.013000000000000001 0.011 0.0 13 11 0 -1.31367187733 1.9596803804 2.31192050756 0.0 0.0 0.0
0.014 0.011 0.0 14 11 0 -1.86727427297 0.771917385091 0.48948948225 0.0 0.0 0.0
0.015 0.011 0.0 15 11 0 -0.805636690219 -0.472479368544 -1.34124259286 0.0 0.0 0.0
0.016 0.011 0.0 16 11 0 0.943994487389 -1.38784975158 1.91453283946 0.0 0.0 0.0
0.017 0.011 0.0 17 11 0 -0.0993612231335 -0.718587183678 0.201872439386 0.0 0.0 0.0
0.018000000000000002 0.011 0.0 18 11 0 0.0465939216311 -0.338406811173 -0.814431889641 0.0 0.0 0.0
0.019 0.011 0.0 19 11 0 -0.287694070135 -0.996024232702 -1.100863321 0.0 0.0 0.0
0.02 0.011 0.0 20 11 0 0.696264010737 0.0599587921082 -1.82377938102 0.0 0.0 0.0
0.021 0.011 0.0 21 11 0 0.401013082903 0.223413465542 0.750504829866 0.0 0.0 0.0
0.022 0.011 0.0 22 11 0 -0.465863181493 -2.91117931094 1.48342836991 0.0 0.0 0.0
0.023 0.011 0.0 23 11 0 1.01438975877 0.289597010161 -0.11217388723 0.0 0.0 0.0
0.024 0.011 0.0 24 11 0 -0.496922845733 -1.20974109389 0.826343126545 0.0 0.0 0.0