VARIABLES = X Y Z I J K U V W VORT_X VORT_Y VORT_Z
ZONE I= 20 J= 20 K= 20
0.0 0.0 0.0 0 0 0 0.0945323009579 -0.845871634214 -0.488746374877 0.0 0.0 0.0
0.095 0.0 0.0 1 0 0 0.165612250819 0.190046551502 -0.309729580774 0.0 0.0 0.0
0.19 0.0 0.0 2 0 0 -0.14679558137 2.50581275256 1.44615354001 0.0 0.0 0.0
0.285 0.0 0.0 3 0 0 -0.149101806228 -1.92936957294 -0.0809510603205 0.0 0.0 0.0
0.38 0.0 0.0 4 0 0 -0.844113561052 0.140425669309 -0.267791065969 0.0 0.0 0.0
0.475 0.0 0.0 5 0 0 0.137244113649 -0.413791111226 -0.375298071106 0.0 0.0 0.0
0.57 0.0 0.0 6 0 0 -0.915827042112 0.660416028424 1.36441835008 0.0 0.0 0.0
0.665 0.0 0.0 7 0 0 0.338865623387 -1.22979100112 -0.546959630571 0.0 0.0 0.0
0.76 0.0 0.0 8 0 0 0.522399901221 0.49401390356 -0.752602003367 0.0 0.0 0.0
0.855 0.0 0.0 9 0 0 1.08447819537 -1.08480278341 0.898078625928 0.0 0.0 0.0
0.95 0.0 0.0 10 0 0 -0.0661695464307 -0.781635970677 0.266780766513 0.0 0.0 0.0
1.045 0.0 0.0 11 0 0 -0.0650215919474 0.348109599347 -0.839708264367 0.0 0.0 0.0
1.14 0.0 0.0 12 0 0 2.81753037455 -0.113389499845 -0.710741084356 0.0 0.0 0.0
1.235 0.0 0.0 13 0 0 -1.78765026161 0.600283795928 0.897347386272 0.0 0.0 0.0
1.33 0.0 0.0 14 0 0 -1.84457979447 -0.359977783244 -1.55150213425 0.0 0.0 0.0
1.425 0.0 0.0 15 0 0 -1.66173588197 -0.322681875217 -1.24406061711 0.0 0.0 0.0
1.52 0.0 0.0 16 0 0 0.34081490244 0.192490505526 -0.429190299349 0.0 0.0 0.0
1.615 0.0 0.0 17 0 0 0.337111408717 -0.497675015771 -0.418702064742 0.0 0.0 0.0
1.71 0.0 0.0 18 0 0 -0.314924019482 -0.967896921212 -0.33434788338 0.0 0.0 0.0
1.805 0.0 0.0 19 0 0 0.317431334423 -1.0203892374 0.279560644664 0.0 0.0 0.0
0.0 0.095 0.0 0 1 0 1.90206829838 0.907740002996 0.669761813331 0.0 0.0 0.0
0.095 0.095 0.0 1 1 0 -0.0578532397433 -0.297162498115 0.74117515068 0.0 0.0 0.0
0.19 0.095 0.0 2 1 0 -1.3149042131 -0.51966436509 1.189094317 0.0 0.0 0.0
0.285 0.095 0.0 3 1 0 -0.0268925704493 0.0339269693784 -0.00278881788935 0.0 0.0 0.0
0.38 0.095 0.0 4 1 0 -0.249223793675 0.881650352329 -1.93436118362 0.0 0.0 0.0
0.475 0.095 0.0 5 1 0 0.623139044624 0.0665533480158 1.28541616182 0.0 0.0 0.0
0.57 0.095 0.0 6 1 0 -0.0303854236905 -0.726508400476 0.00395033697202 0.0 0.0 0.0
0.665 0.095 0.0 7 1 0 0.374326222576 -0.883459618573 0.175861038204 0.0 0.0 0.0
0.76 0.095 0.0 8 1 0 -0.313131035622 0.21844495233 1.29679139689 0.0 0.0 0.0
0.855 0.095 0.0 9 1 0 0.432421819219 -0.220541446607 -1.6906942652 0.0 0.0 0.0
0.95 0.095 0.0 10 1 0 0.113240939207 0.355317455522 -2.13615268858 0.0 0.0 0.0
1.045 0.095 0.0 11 1 0 -1.00625844092 -0.565866065164 -0.506575470951 0.0 0.0 0.0
1.14 0.095 0.0 12 1 0 0.412859585205 1.24640296822 -0.169214490137 0.0 0.0 0.0
1.235 0.095 0.0 13 1 0 -0.352411085398 0.814730860264 0.342167488258 0.0 0.0 0.0
1.33 0.095 0.0 14 1 0 0.780390390311 -0.170021955488 -0.240674925759 0.0 0.0 0.0
1.425 0.095 0.0 15 1 0 -0.554934869011 -0.251676029701 1.18829248042 0.0 0.0 0.0
1.52 0.095 0.0 16 1 0 -0.982171351401 -2.41740367466 0.30733815424 0.0 0.0 0.0
1.615 0.095 0.0 17 1 0 0.20924399039 -0.642289518099 -0.302064810501 0.0 0.0 0.0
1.71 0.095 0.0 18 1 0 1.23625669897 -0.727549982711 1.95846215722 0.0 0.0 0.0
1.805 0.095 0.0 19 1 0 -0.592219630392 -0.0499461744984 1.53414134487 0.0 0.0 0.0
0.0 0.19 0.0 0 2 0 -0.136985845052 -1.34109724926 0.225226724231 0.0 0.0 0.0
0.095 0.19 0.0 1 2 0 0.164200236913 -0.982098776427 -3.18016569521 0.0 0.0 0.0
0.19 0.19 0.0 2 2 0 -0.244985210067 0.712395026816 -0.64549926335 0.0 0.0 0.0
0.285 0.19 0.0 3 2 0 -0.145906728121 1.78620279193 -1.03601481787 0.0 0.0 0.0
0.38 0.19 0.0 4 2 0 1.67513099402 -0.627813855371 0.0965129855345 0.0 0.0 0.0
0.475 0.19 0.0 5 2 0 -0.456162860484 0.243505353587 1.75387944326 0.0 0.0 0.0
0.57 0.19 0.0 6 2 0 0.372977850838 -0.798608483409 -1.38575946983 0.0 0.0 0.0
0.665 0.19 0.0 7 2 0 -0.0403574087136 -0.487038637519 0.49455989761 0.0 0.0 0.0
0.76 0.19 0.0 8 2 0 -1.58980532903 -0.0879704333267 0.982966050793 0.0 0.0 0.0
0.855 0.19 0.0 9 2 0 -2.27236572088 1.1904965767 -0.606200051475 0.0 0.0 0.0
0.95 0.19 0.0 10 2 0 1.58358199696 0.264679675835 -1.51697575012 0.0 0.0 0.0
1.045 0.19 0.0 11 2 0 0.774782951562 -0.0747100349829 -0.697775577838 0.0 0.0 0.0
1.14 0.19 0.0 12 2 0 -0.178045213509 0.515704791244 0.0535513765844 0.0 0.0 0.0
1.235 0.19 0.0 13 2 0 0.223348523397 -1.3572666196 0.571370770778 0.0 0.0 0.0
1.33 0.19 0.0 14 2 0 0.0191032878314 -0.797292668382 -1.3428059374 0.0 0.0 0.0
1.425 0.19 0.0 15 2 0 1.92031185371 1.45958629432 -0.0342942013048 0.0 0.0 0.0
1.52 0.19 0.0 16 2 0 -1.08613888616 0.462386606779 0.929977841181 0.0 0.0 0.0
1.615 0.19 0.0 17 2 0 -0.559908044453 1.30505688708 -0.512149181091 0.0 0.0 0.0
1.71 0.19 0.0 18 2 0 0.273036564393 -0.540396971039 -0.468110707504 0.0 0.0 0.0
1.805 0.19 0.0 19 2 0 0.410533818602 -0.317327478168 2.04285379025 0.0 0.0 0.0
0.0 0.285 0.0 0 3 0 0.140101005652 -0.547720088944 1.31693769038 0.0 0.0 0.0
0.095 0.285 0.0 1 3 0 1.013071944 -0.394944698539 -0.431782245989 0.0 0.0 0.0
0.19 0.285 0.0 2 3 0 -0.779608724592 0.188251426598 -0.261426322996 0.0 0.0 0.0
0.285 0.285 0.0 3 3 0 -0.564162369531 -1.68553377395 0.059150152986 0.0 0.0 0.0
0.38 0.285 0.0 4 3 0 -0.868350330631 -0.39787018865 1.26487506477 0.0 0.0 0.0
0.475 0.285 0.0 5 3 0 0.934353276049 0.321971787814 -0.347224201069 0.0 0.0 0.0
0.57 0.285 0.0 6 3 0 0.380195444717 -0.228933139087 0.457178832024 0.0 0.0 0.0
0.665 0.285 0.0 7 3 0 -1.14185515487 1.62872350164 2.0038618151 0.0 0.0 0.0
0.76 0.285 0.0 8 3 0 -1.08461388216 -1.07582478267 1.41413443166 0.0 0.0 0.0
0.855 0.285 0.0 9 3 0 -1.27663149966 -0.736811317798 -0.47099389271 0.0 0.0 0.0
0.95 0.285 0.0 10 3 0 0.933126584327 -1.24987376598 -0.368229279091 0.0 0.0 0.0
1.045 0.285 0.0 11 3 0 0.662795004462 -0.730377468306 0.226734086617 0.0 0.0 0.0
1.14 0.285 0.0 12 3 0 -0.460890023274 -1.60634159998 0.202268825945 0.0 0.0 0.0
1.235 0.285 0.0 13 3 0 -0.303242602218 -1.16528829585 -1.42822471583 0.0 0.0 0.0
1.33 0.285 0.0 14 3 0 -0.323302403537 -0.773180861167 0.55041235829 0.0 0.0 0.0
1.425 0.285 0.0 15 3 0 -0.189453012264 0.59120739096 1.10443600864 0.0 0.0 0.0
1.52 0.285 0.0 16 3 0 -1.22349230683 0.322738165625 -0.962325782719 0.0 0.0 0.0
1.615 0.285 0.0 17 3 0 0.473930060966 -0.181459927898 0.139835418843 0.0 0.0 0.0
1.71 0.285 0.0 18 3 0 0.675907393287 -1.22892605413 -0.463391143903 0.0 0.0 0.0
1.805 0.285 0.0 19 3 0 0.688543969654 0.130978614879 -0.104584845571 0.0 0.0 0.0
0.0 0.38 0.0 0 4 0 -0.0232468995936 -0.468420092691 -1.42827555285 0.0 0.0 0.0
0.095 0.38 0.0 1 4 0 1.59350092902 1.18114481742 0.986627212566 0.0 0.0 0.0
0.19 0.38 0.0 2 4 0 1.3334594538 0.226036169119 0.629698384536 0.0 0.0 0.0
0.285 0.38 0.0 3 4 0 0.608778268406 0.945248268464 1.19167452366 0.0 0.0 0.0
0.38 0.38 0.0 4 4 0 0.0865117091172 1.38328569174 0.595847325963 0.0 0.0 0.0
0.475 0.38 0.0 5 4 0 0.0059457385756 0.00653183208173 0.503970501555 0.0 0.0 0.0
0.57 0.38 0.0 6 4 0 0.489574312866 0.400730069863 -1.04937083339 0.0 0.0 0.0
0.665 0.38 0.0 7 4 0 2.3354071787 1.24797490897 0.159039588269 0.0 0.0 0.0
0.76 0.38 0.0 8 4 0 0.415127666235 -0.646783058005 -0.178256902578 0.0 0.0 0.0
0.855 0.38 0.0 9 4 0 0.987589640859 0.244453576738 0.449511379268 0.0 0.0 0.0
0.95 0.38 0.0 10 4 0 -0.674619011267 0.390114051821 -0.196637595597 0.0 0.0 0.0
1.045 0.38 0.0 11 4 0 -0.351068419357 -1.97527179318 -0.191444565407 0.0 0.0 0.0
1.14 0.38 0.0 12 4 0 -0.0851046980038 0.796330484078 -0.565754607545 0.0 0.0 0.0
1.235 0.38 0.0 13 4 0 0.283972476903 1.16368271587 0.257682297302 0.0 0.0 0.0
1.33 0.38 0.0 14 4 0 -0.842426748946 0.842795879908 0.302032778693 0.0 0.0 0.0
1.425 0.38 0.0 15 4 0 -1.77919345553 0.612473225534 -0.272852907273 0.0 0.0 0.0
1.52 0.38 0.0 16 4 0 -0.222442164978 -1.07376657955 2.01817649999 0.0 0.0 0.0
1.615 0.38 0.0 17 4 0 0.0134793689391 0.438645457067 -1.64291227431 0.0 0.0 0.0
1.71 0.38 0.0 18 4 0 -0.661005868327 -0.435355619797 -0.784070212513 0.0 0.0 0.0
1.805 0.38 0.0 19 4 0 1.72528545904 1.8892910165 0.806869510291 0.0 0.0 0.0
0.0 0.475 0.0 0 5 0 -1.12446142679 -1.04821068614 0.934492638901 0.0 0.0 0.0
0.095 0.475 0.0 1 5 0 0.190371472095 0.995214537095 0.515397529646 0.0 0.0 0.0
0.19 0.475 0.0 2 5 0 0.398567550278 -2.16941058533 1.05664579003 0.0 0.0 0.0
0.285 0.475 0.0 3 5 0 2.47648551596 -0.219366411837 2.13357336098 0.0 0.0 0.0
0.38 0.475 0.0 4 5 0 -0.876157389994 -0.221578496521 -1.10692626492 0.0 0.0 0.0
0.475 0.475 0.0 5 5 0 0.0127149966045 -1.26383651432 0.462571805133 0.0 0.0 0.0
0.57 0.475 0.0 6 5 0 0.0895385554567 -0.513764115864 -0.916089106169 0.0 0.0 0.0
0.665 0.475 0.0 7 5 0 -0.280595822268 0.551531824354 0.150062534034 0.0 0.0 0.0
0.76 0.475 0.0 8 5 0 -1.26584475769 -0.82896486393 -0.569045774165 0.0 0.0 0.0
0.855 0.475 0.0 9 5 0 0.900328887605 0.530626549264 -0.216849763373 0.0 0.0 0.0
0.95 0.475 0.0 10 5 0 0.294018620899 -0.0367176598397 -0.214366777604 0.0 0.0 0.0
1.045 0.475 0.0 11 5 0 -0.389558608919 -0.323018789124 -1.72992767235 0.0 0.0 0.0
1.14 0.475 0.0 12 5 0 1.1935815189 1.00217017273 0.605549115751 0.0 0.0 0.0
1.235 0.475 0.0 13 5 0 0.300380155798 -0.626453409111 -0.0743444494662 0.0 0.0 0.0
1.33 0.475 0.0 14 5 0 -1.76706656318 -1.56580561895 0.799382232032 0.0 0.0 0.0
1.425 0.475 0.0 15 5 0 1.08531079758 0.942185611599 -0.244686234078 0.0 0.0 0.0
1.52 0.475 0.0 16 5 0 0.906366062433 0.782469896741 1.39381405567 0.0 0.0 0.0
1.615 0.475 0.0 17 5 0 0.518347189999 0.759487137059 -0.280832462251 0.0 0.0 0.0
1.71 0.475 0.0 18 5 0 -1.5550625047 -0.289067300871 1.63203579348 0.0 0.0 0.0
1.805 0.475 0.0 19 5 0 -0.669778713873 0.202394795105 -0.438164613252 0.0 0.0 0.0
0.0 0.57 0.0 0 6 0 -0.661181573504 -0.635770674397 -1.10557861399 0.0 0.0 0.0
0.095 0.57 0.0 1 6 0 1.62515224143 1.26095493838 -0.263555565987 0.0 0.0 0.0
0.19 0.57 0.0 2 6 0 0.945014633071 2.18459934303 0.394176509748 0.0 0.0 0.0
0.285 0.57 0.0 3 6 0 1.04116806392 1.38994607676 -0.16691683247 0.0 0.0 0.0
0.38 0.57 0.0 4 6 0 -0.219402075198 1.27058091789 -1.97065967143 0.0 0.0 0.0
0.475 0.57 0.0 5 6 0 -0.859098119295 -1.48530024434 0.258922340512 0.0 0.0 0.0
0.57 0.57 0.0 6 6 0 -0.951267987172 1.23992426145 0.341844039345 0.0 0.0 0.0
0.665 0.57 0.0 7 6 0 -0.591169827523 0.255261021863 0.721749157955 0.0 0.0 0.0
0.76 0.57 0.0 8 6 0 1.42906086238 0.253830887243 -0.376798683136 0.0 0.0 0.0
0.855 0.57 0.0 9 6 0 -0.207671244958 1.80590283049 0.146390969993 0.0 0.0 0.0
0.95 0.57 0.0 10 6 0 -1.86970786706 1.37556560948 0.421436039187 0.0 0.0 0.0
1.045 0.57 0.0 11 6 0 0.206469575816 0.998702835403 -0.0557135769553 0.0 0.0 0.0
1.14 0.57 0.0 12 6 0 -0.847715646357 0.282434095082 -0.25582215744 0.0 0.0 0.0
1.235 0.57 0.0 13 6 0 1.15789459598 0.491938531612 -0.338298780996 0.0 0.0 0.0
1.33 0.57 0.0 14 6 0 1.06178857325 -0.806346748107 -0.146836242776 0.0 0.0 0.0
1.425 0.57 0.0 15 6 0 -0.498833275326 0.956168742802 0.87049898196 0.0 0.0 0.0
1.52 0.57 0.0 16 6 0 -0.641521879386 -0.20477528952 -1.10099782244 0.0 0.0 0.0
1.615 0.57 0.0 17 6 0 -1.05748839861 0.415355698062 -0.364560017185 0.0 0.0 0.0
1.71 0.57 0.0 18 6 0 -0.0967746392182 -0.880060180644 0.671656636321 0.0 0.0 0.0
1.805 0.57 0.0 19 6 0 -0.129204571036 2.69088505102 0.372895834819 0.0 0.0 0.0
0.0 0.665 0.0 0 7 0 0.21834939787 -2.52450084738 0.334643104263 0.0 0.0 0.0
0.095 0.665 0.0 1 7 0 -0.277601049762 0.206882962961 0.438076483624 0.0 0.0 0.0
0.19 0.665 0.0 2 7 0 -0.815983805613 -1.39617328892 0.147851584298 0.0 0.0 0.0
0.285 0.665 0.0 3 7 0 -0.308219344502 2.50254356009 -0.308937601995 0.0 0.0 0.0
0.38 0.665 0.0 4 7 0 1.68990576748 -0.258188907876 0.743466516741 0.0 0.0 0.0
0.475 0.665 0.0 5 7 0 -0.854080908206 -0.255837473046 -0.338471722301 0.0 0.0 0.0
0.57 0.665 0.0 6 7 0 -1.34357544305 0.548371660741 0.386053928843 0.0 0.0 0.0
0.665 0.665 0.0 7 7 0 -1.42603658966 1.28511610927 0.47620205733 0.0 0.0 0.0
0.76 0.665 0.0 8 7 0 0.391625132834 -1.29496755365 0.669804151769 0.0 0.0 0.0
0.855 0.665 0.0 9 7 0 0.0185671075373 -0.269547920472 -0.597086195275 0.0 0.0 0.0
0.95 0.665 0.0 10 7 0 -0.493361258739 -0.352462252825 0.434981822215 0.0 0.0 0.0
1.045 0.665 0.0 11 7 0 0.297424488634 -0.969546767414 0.801281213556 0.0 0.0 0.0
1.14 0.665 0.0 12 7 0 0.69759956526 0.532353462797 -0.386015376494 0.0 0.0 0.0
1.235 0.665 0.0 13 7 0 1.18349281713 -3.42341671315 0.219942789677 0.0 0.0 0.0
1.33 0.665 0.0 14 7 0 1.71718255745 1.61312851677 -1.20517626117 0.0 0.0 0.0
1.425 0.665 0.0 15 7 0 -0.494322331469 -0.0761946683843 0.336470929593 0.0 0.0 0.0
1.52 0.665 0.0 16 7 0 0.187068510726 -0.282123460764 1.08152243512 0.0 0.0 0.0
1.615 0.665 0.0 17 7 0 -0.359126092464 1.17971447277 1.42317782777 0.0 0.0 0.0
1.71 0.665 0.0 18 7 0 2.42655290114 -0.420682674371 0.271915886415 0.0 0.0 0.0
1.805 0.665 0.0 19 7 0 -1.91895923428 -0.320614302441 0.375350198277 0.0 0.0 0.0
0.0 0.76 0.0 0 8 0 -0.45423379393 -1.89374075062 1.13882349658 0.0 0.0 0.0
0.095 0.76 0.0 1 8 0 0.418080727595 0.646699931301 -0.618062907421 0.0 0.0 0.0
0.19 0.76 0.0 2 8 0 -0.271846554598 0.285442984822 0.281029104432 0.0 0.0 0.0
0.285 0.76 0.0 3 8 0 0.609043625382 -0.248844810961 0.179889816699 0.0 0.0 0.0
0.38 0.76 0.0 4 8 0 1.83964882691 0.147885326074 -0.56335598816 0.0 0.0 0.0
0.475 0.76 0.0 5 8 0 0.803090154542 1.41535798765 -0.132693269014 0.0 0.0 0.0
0.57 0.76 0.0 6 8 0 -0.825114255935 -0.376430547678 -0.345616312398 0.0 0.0 0.0
0.665 0.76 0.0 7 8 0 -0.0847604590522 0.00450198534811 2.04150644219 0.0 0.0 0.0
0.76 0.76 0.0 8 8 0 2.07401689482 0.327055946556 0.742703415165 0.0 0.0 0.0
0.855 0.76 0.0 9 8 0 1.16520207143 0.466515961428 0.106841195907 0.0 0.0 0.0
0.95 0.76 0.0 10 8 0 1.43584221524 7.55310890612e-05 1.39381187217 0.0 0.0 0.0
1.045 0.76 0.0 11 8 0 1.67527670284 -0.150924384703 -0.988736907672 0.0 0.0 0.0
1.14 0.76 0.0 12 8 0 -0.0206318150273 -0.245548240894 0.898639865781 0.0 0.0 0.0
1.235 0.76 0.0 13 8 0 -0.632217301799 0.622572868491 -2.18983762888 0.0 0.0 0.0
1.33 0.76 0.0 14 8 0 0.473801773602 0.834037708506 -1.6502507698 0.0 0.0 0.0
1.425 0.76 0.0 15 8 0 -0.817232620441 -0.0599581623868 -0.335086460897 0.0 0.0 0.0
1.52 0.76 0.0 16 8 0 0.430588787653 -0.318421083193 -0.662431901529 0.0 0.0 0.0
1.615 0.76 0.0 17 8 0 0.548772361345 -0.695787644931 1.08760837088 0.0 0.0 0.0
1.71 0.76 0.0 18 8 0 0.00741226391016 1.26166938437 0.529777089514 0.0 0.0 0.0
1.805 0.76 0.0 19 8 0 2.01695036817 1.37206213757 -1.26535842057 0.0 0.0 0.0
0.0 0.855 0.0 0 9 0 0.351103316146 -0.684985492603 -1.45122132371 0.0 0.0 0.0
0.095 0.855 0.0 1 9 0 0.0795598360538 -0.806894040534 -0.333958379623 0.0 0.0 0.0
0.19 0.855 0.0 2 9 0 1.27545846918 0.403174123445 0.167211749217 0.0 0.0 0.0
0.285 0.855 0.0 3 9 0 -0.916922963684 -0.916218016184 0.650268816075 0.0 0.0 0.0
0.38 0.855 0.0 4 9 0 1.89736914443 0.165512526696 0.501108507094 0.0 0.0 0.0
0.475 0.855 0.0 5 9 0 0.90344336078 -0.0852751102759 -0.55590060358 0.0 0.0 0.0
0.57 0.855 0.0 6 9 0 0.277171089422 -0.308578540736 -0.234306409255 0.0 0.0 0.0
0.665 0.855 0.0 7 9 0 -0.544072784116 0.626850517242 0.852164398453 0.0 0.0 0.0
0.76 0.855 0.0 8 9 0 0.22777162588 0.21390114502 0.226484581622 0.0 0.0 0.0
0.855 0.855 0.0 9 9 0 0.948075837972 1.10488187234 1.12626485418 0.0 0.0 0.0
0.95 0.855 0.0 10 9 0 0.245828726327 -0.431301915908 -0.606130440454 0.0 0.0 0.0
1.045 0.855 0.0 11 9 0 1.5060776017 -2.20786365843 -0.472050337918 0.0 0.0 0.0
1.14 0.855 0.0 12 9 0 0.158957380077 1.59507328319 -0.241894122195 0.0 0.0 0.0
1.235 0.855 0.0 13 9 0 -0.839136319062 -0.879751428427 1.19146199114 0.0 0.0 0.0
1.33 0.855 0.0 14 9 0 -0.699635534882 0.445742939042 1.21516131954 0.0 0.0 0.0
1.425 0.855 0.0 15 9 0 0.617454831803 -0.909125564588 0.682126752449 0.0 0.0 0.0
1.52 0.855 0.0 16 9 0 -1.00325570268 -0.0909431781248 -0.186853957807 0.0 0.0 0.0
1.615 0.855 0.0 17 9 0 -1.20251301799 -1.12967916187 0.643310997756 0.0 0.0 0.0
1.71 0.855 0.0 18 9 0 -0.546102429252 -0.953942015352 0.585282818057 0.0 0.0 0.0
1.805 0.855 0.0 19 9 0 0.106671512979 -0.470970739625 -1.09977774049 0.0 0.0 0.0
0.0 0.95 0.0 0 10 0 1.24075670121 1.17936957249 -1.41774164736 0.0 0.0 0.0
0.095 0.95 0.0 1 10 0 -1.67552220906 -0.595359020963 -1.10947434106 0.0 0.0 0.0
0.19 0.95 0.0 2 10 0 -1.8063768916 0.218255278212 -0.180679198562 0.0 0.0 0.0
0.285 0.95 0.0 3 10 0 -0.0967545950935 1.13521767877 -1.30536785284 0.0 0.0 0.0
0.38 0.95 0.0 4 10 0 2.05139442019 -0.983412672006 -1.39501934427 0.0 0.0 0.0
0.475 0.95 0.0 5 10 0 -1.45829257221 1.0834044914 0.194239601802 0.0 0.0 0.0
0.57 0.95 0.0 6 10 0 -0.476087130772 -0.413382219746 1.75576763198 0.0 0.0 0.0
0.665 0.95 0.0 7 10 0 -0.348490730754 2.07759996412 -1.653939897 0.0 0.0 0.0
0.76 0.95 0.0 8 10 0 -1.51260914576 0.0883902167835 1.33780965546 0.0 0.0 0.0
0.855 0.95 0.0 9 10 0 0.901926513656 0.21000405558 -0.739801172461 0.0 0.0 0.0
0.95 0.95 0.0 10 10 0 -1.08790584987 -1.06643993649 0.286615618729 0.0 0.0 0.0
1.045 0.95 0.0 11 10 0 -2.25930459761 0.678403642099 0.557872185908 0.0 0.0 0.0
1.14 0.95 0.0 12 10 0 -0.217750567207 0.082410779367 -1.8633572671 0.0 0.0 0.0
1.235 0.95 0.0 13 10 0 1.90657390987 0.81465312841 0.436983817678 0.0 0.0 0.0
1.33 0.95 0.0 14 10 0 -0.0833644122215 0.732408020768 -1.64226585259 0.0 0.0 0.0
1.425 0.95 0.0 15 10 0 -0.1606678646 0.546077537591 0.088289728597 0.0 0.0 0.0
1.52 0.95 0.0 16 10 0 0.752353441797 -0.906228916418 -1.76160536121 0.0 0.0 0.0
1.615 0.95 0.0 17 10 0 0.808061395863 -0.71723573667 0.248111290989 0.0 0.0 0.0
1.71 0.95 0.0 18 10 0 0.393112755476 0.269437935813 -0.103843498445 0.0 0.0 0.0
1.805 0.95 0.0 19 10 0 0.86230802304 -1.08771255536 -0.0910921768684 0.0 0.0 0.0
0.0 1.045 0.0 0 11 0 1.25672929478 -0.00365479060072 0.0882558206988 0.0 0.0 0.0
0.095 1.045 0.0 1 11 0 -0.239144566471 -1.22489384682 0.197529166309 0.0 0.0 0.0
0.19 1.045 0.0 2 11 0 0.651690706236 -1.59474606079 0.563793478001 0.0 0.0 0.0
0.285 1.045 0.0 3 11 0 0.153255649444 -1.45155118345 0.548207058173 0.0 0.0 0.0
0.38 1.045 0.0 4 11 0 -0.327646107962 -0.66173031778 0.723161824788 0.0 0.0 0.0
0.475 1.045 0.0 5 11 0 1.37889209972 -2.04941749018 -0.612917023099 0.0 0.0 0.0
0.57 1.045 0.0 6 11 0 0.831670665105 1.14489662828 -0.409327199404 0.0 0.0 0.0
0.665 1.045 0.0 7 11 0 1.23829902953 1.04805232838 0.236530326672 0.0 0.0 0.0
0.76 1.045 0.0 8 11 0 0.558393429129 -0.168954168344 -0.815629213321 0.0 0.0 0.0
0.855 1.045 0.0 9 11 0 0.8467452545 -0.65859434788 -0.322381784338 0.0 0.0 0.0
0.95 1.045 0.0 10 11 0 -0.566118181722 0.00926036283616 0.780187706089 0.0 0.0 0.0
1.045 1.045 0.0 11 11 0 1.03991182125 0.836255071867 1.30047799255 0.0 0.0 0.0
1.14 1.045 0.0 12 11 0 -2.40387523522 -0.330137093422 0.658545872277 0.0 0.0 0.0
1.235 1.045 0.0 13 11 0 2.41758664091 0.49175447478 0.282186586797 0.0 0.0 0.0
1.33 1.045 0.0 14 11 0 -0.28888262375 -0.402015742967 -0.168295823789 0.0 0.0 0.0
1.425 1.045 0.0 15 11 0 0.0976320969263 2.25775661794 0.419876693247 0.0 0.0 0.0
1.52 1.045 0.0 16 11 0 -0.919711030811 -0.951867314697 -0.310395485053 0.0 0.0 0.0
1.615 1.045 0.0 17 11 0 0.659469877007 -0.259725896897 0.66129787516 0.0 0.0 0.0
1.71 1.045 0.0 18 11 0 0.56406169058 0.915350435101 -0.601564343043 0.0 0.0 0.0
1.805 1.045 0.0 19 11 0 -0.146420015852 0.166925457916 -0.419584927054 0.0 0.0 0.0
0.0 1.14 0.0 0 12 0 0.671923678438 -1.24612969715 0.501378318096 0.0 0.0 0.0
0.095 1.14 0.0 1 12 0 -0.778237846913 1.04902642467 -1.83992023407 0.0 0.0 0.0
0.19 1.14 0.0 2 12 0 0.62901952704 -1.14667093606 0.770370089857 0.0 0.0 0.0
0.285 1.14 0.0 3 12 0 -1.85200792407 0.561009330904 -1.92474728901 0.0 0.0 0.0
0.38 1.14 0.0 4 12 0 1.1234680773 -0.986079172243 -1.34530362513 0.0 0.0 0.0
0.475 1.14 0.0 5 12 0 1.02728082434 1.7806403605 0.222137455185 0.0 0.0 0.0
0.57 1.14 0.0 6 12 0 0.219806338894 -0.111447117984 -1.04401440778 0.0 0.0 0.0
0.665 1.14 0.0 7 12 0 -0.44241403949 -1.0486658558 -0.173118081583 0.0 0.0 0.0
0.76 1.14 0.0 8 12 0 0.56135650512 0.163839558885 0.189526153055 0.0 0.0 0.0
0.855 1.14 0.0 9 12 0 0.5398235484 -0.905322707763 -0.89376161696 0.0 0.0 0.0
0.95 1.14 0.0 10 12 0 0.955480738366 0.172135365145 -2.3352964628 0.0 0.0 0.0
1.045 1.14 0.0 11 12 0 1.28726674806 1.75884829173 1.47874045566 0.0 0.0 0.0
1.14 1.14 0.0 12 12 0 -1.75672497949 1.46929709598 1.09891414651 0.0 0.0 0.0
1.235 1.14 0.0 13 12 0 0.963926936161 -2.0738786976 1.21541227299 0.0 0.0 0.0
1.33 1.14 0.0 14 12 0 1.17999111676 -0.783181719283 -1.86092768783 0.0 0.0 0.0
1.425 1.14 0.0 15 12 0 -0.0795055821067 -0.141552123353 -1.30463723623 0.0 0.0 0.0
1.52 1.14 0.0 16 12 0 -1.81472656332 -0.678657896722 -0.798040388498 0.0 0.0 0.0
1.615 1.14 0.0 17 12 0 0.375580089762 0.47352179903 -1.64943043424 0.0 0.0 0.0
1.71 1.14 0.0 18 12 0 -0.191707798766 -1.12634972548 1.03715298251 0.0 0.0 0.0
1.805 1.14 0.0 19 12 0 0.402026194277 -0.0369669447702 0.139973859887 0.0 0.0 0.0
0.0 1.235 0.0 0 13 0 0.571519404921 -1.50643618769 0.350514067737 0.0 0.0 0.0
0.095 1.235 0.0 1 13 0 -0.45012999534 0.283838415939 0.276045517679 0.0 0.0 0.0
0.19 1.235 0.0 2 13 0 -1.48599661022 0.813149269747 -0.981015577357 0.0 0.0 0.0
0.285 1.235 0.0 3 13 0 1.15028045765 1.46287705731 0.852313215181 0.0 0.0 0.0
0.38 1.235 0.0 4 13 0 -0.183358398381 1.53978538519 -0.795726575216 0.0 0.0 0.0
0.475 1.235 0.0 5 13 0 -1.95264571416 -0.854095787642 0.239394991509 0.0 0.0 0.0
0.57 1.235 0.0 6 13 0 1.03034300256 1.82936554634 -0.348482459858 0.0 0.0 0.0
0.665 1.235 0.0 7 13 0 -1.9030213559 -0.25788767763 1.92432336918 0.0 0.0 0.0
0.76 1.235 0.0 8 13 0 -0.418902199171 1.09295357159 0.710533939209 0.0 0.0 0.0
0.855 1.235 0.0 9 13 0 -0.144283435066 1.57757742324 -1.06927191733 0.0 0.0 0.0
0.95 1.235 0.0 10 13 0 -0.239483050561 0.278366093112 -2.79662498197 0.0 0.0 0.0
1.045 1.235 0.0 11 13 0 -0.0312390309036 -1.31391062106 1.91501897069 0.0 0.0 0.0
1.14 1.235 0.0 12 13 0 -0.0545399946956 -1.25438299825 0.870320210275 0.0 0.0 0.0
1.235 1.235 0.0 13 13 0 -1.00608309908 1.30259431232 -0.298498019117 0.0 0.0 0.0
1.33 1.235 0.0 14 13 0 -0.0720757572845 0.632059901183 -0.83454933842 0.0 0.0 0.0
1.425 1.235 0.0 15 13 0 0.604956296862 0.0450331134901 0.125844681389 0.0 0.0 0.0
1.52 1.235 0.0 16 13 0 0.480665668368 -1.22961824632 -0.178181824832 0.0 0.0 0.0
1.615 1.235 0.0 17 13 0 -0.0344094713047 0.197252511014 -0.0221305564342 0.0 0.0 0.0
1.71 1.235 0.0 18 13 0 0.981914991915 1.93730905688 1.48921827716 0.0 0.0 0.0
1.805 1.235 0.0 19 13 0 -0.19070056395 1.70118648194 0.178187057832 0.0 0.0 0.0
0.0 1.33 0.0 0 14 0 0.130391955812 -0.356022197454 -1.58930541645 0.0 0.0 0.0
0.095 1.33 0.0 1 14 0 1.77419983708 -2.08753262188 0.598156008834 0.0 0.0 0.0
0.19 1.33 0.0 2 14 0 -0.178409776554 -0.0759145137214 0.475111011648 0.0 0.0 0.0
0.285 1.33 0.0 3 14 0 1.37415520864 0.142018385984 1.47178071563 0.0 0.0 0.0
0.38 1.33 0.0 4 14 0 -1.26276304507 -0.60074594377 -0.366530572542 0.0 0.0 0.0
0.475 1.33 0.0 5 14 0 -1.67149547396 0.340246764854 -0.386820647807 0.0 0.0 0.0
0.57 1.33 0.0 6 14 0 2.05120506923 -0.560133917499 0.310431781534 0.0 0.0 0.0
0.665 1.33 0.0 7 14 0 -1.66104388031 -0.809365687473 0.00414156976431 0.0 0.0 0.0
0.76 1.33 0.0 8 14 0 -0.845823948972 0.138835949424 -0.985284025832 0.0 0.0 0.0
0.855 1.33 0.0 9 14 0 0.889961120302 1.78322088804 -0.0835566397546 0.0 0.0 0.0
0.95 1.33 0.0 10 14 0 -0.316236123264 1.99055744499 1.64386286028 0.0 0.0 0.0
1.045 1.33 0.0 11 14 0 -1.86107770003 1.08706187833 -0.663201165984 0.0 0.0 0.0
1.14 1.33 0.0 12 14 0 -1.78245970034 0.615403244559 -0.614831716809 0.0 0.0 0.0
1.235 1.33 0.0 13 14 0 -0.507362803999 0.345883344757 0.617676722815 0.0 0.0 0.0
1.33 1.33 0.0 14 14 0 0.999068881983 0.731720163072 0.198694944327 0.0 0.0 0.0
1.425 1.33 0.0 15 14 0 -0.715637580771 0.796011133417 1.62017227977 0.0 0.0 0.0
1.52 1.33 0.0 16 14 0 -0.885735744561 -1.15473258336 -1.32600524835 0.0 0.0 0.0
1.615 1.33 0.0 17 14 0 -1.3432826574 0.0628719131399 -0.439278645155 0.0 0.0 0.0
1.71 1.33 0.0 18 14 0 -0.745294261871 -0.0837522633719 -1.46342835276 0.0 0.0 0.0
1.805 1.33 0.0 19 14 0 0.372692934771 1.1316562789 0.551172196724 0.0 0.0 0.0
0.0 1.425 0.0 0 15 0 -0.576325025271 0.839832454463 0.449792225628 0.0 0.0 0.0
0.095 1.425 0.0 1 15 0 1.39898473941 -0.0543004187262 1.8361434542 0.0 0.0 0.0
0.19 1.425 0.0 2 15 0 1.49319059027 -0.101381413669 0.26146745993 0.0 0.0 0.0
0.285 1.425 0.0 3 15 0 -0.220739855964 -1.95448953713 0.345670703642 0.0 0.0 0.0
0.38 1.425 0.0 4 15 0 -0.954432902817 0.0120825136509 -0.872096561133 0.0 0.0 0.0
0.475 1.425 0.0 5 15 0 -0.369062730912 0.279662192122 2.74792934374 0.0 0.0 0.0
0.57 1.425 0.0 6 15 0 0.873262125461 -0.256648053425 -1.29090917015 0.0 0.0 0.0
0.665 1.425 0.0 7 15 0 0.52698436569 0.211209455506 0.288349841262 0.0 0.0 0.0
0.76 1.425 0.0 8 15 0 -0.477734198368 0.405755164875 -2.00355678121 0.0 0.0 0.0
0.855 1.425 0.0 9 15 0 -1.29389448335 0.820955076432 -1.51984380169 0.0 0.0 0.0
0.95 1.425 0.0 10 15 0 -0.303925028428 -0.922700290373 -1.29187596074 0.0 0.0 0.0
1.045 1.425 0.0 11 15 0 0.919989170872 1.90925009932 0.374936235661 0.0 0.0 0.0
1.14 1.425 0.0 12 15 0 -0.286299655045 1.04028523148 -0.0906452871344 0.0 0.0 0.0
1.235 1.425 0.0 13 15 0 0.102734198418 0.20162047599 0.842769074127 0.0 0.0 0.0
1.33 1.425 0.0 14 15 0 1.33825204472 0.712741610021 -0.206411168712 0.0 0.0 0.0
1.425 1.425 0.0 15 15 0 -3.05752907224 0.332906828437 -0.154640239883 0.0 0.0 0.0
1.52 1.425 0.0 16 15 0 0.938015486578 -0.337200438098 1.12422680979 0.0 0.0 0.0
1.615 1.425 0.0 17 15 0 -0.956193773923 -0.880725642382 0.30695828859 0.0 0.0 0.0
1.71 1.425 0.0 18 15 0 0.55791977847 1.32603006126 -1.08532362138 0.0 0.0 0.0
1.805 1.425 0.0 19 15 0 0.59209921285 -0.555604948884 -1.80046786062 0.0 0.0 0.0
0.0 1.52 0.0 0 16 0 0.606928129696 2.37357832509 -0.333796824286 0.0 0.0 0.0
0.095 1.52 0.0 1 16 0 -1.70492278942 -0.630882519864 -0.690613700968 0.0 0.0 0.0
0.19 1.52 0.0 2 16 0 -0.399580803721 -0.566026676435 0.523539514473 0.0 0.0 0.0
0.285 1.52 0.0 3 16 0 1.38383288228 -0.0410771508208 -0.766154552207 0.0 0.0 0.0
0.38 1.52 0.0 4 16 0 0.880870470334 1.40123278501 -1.08924523136 0.0 0.0 0.0
0.475 1.52 0.0 5 16 0 -1.30127614473 -2.89013838016 -0.959372462677 0.0 0.0 0.0
0.57 1.52 0.0 6 16 0 -0.888250937236 0.440317178064 -1.0592745306 0.0 0.0 0.0
0.665 1.52 0.0 7 16 0 1.13294318024 0.0541929739738 0.510293983432 0.0 0.0 0.0
0.76 1.52 0.0 8 16 0 -2.68468278269 0.330080494311 -1.79716777716 0.0 0.0 0.0
0.855 1.52 0.0 9 16 0 -0.611313155178 0.354097888743 -0.0805823861805 0.0 0.0 0.0
0.95 1.52 0.0 10 16 0 0.820692966166 -0.92441881857 -1.0287851038 0.0 0.0 0.0
1.045 1.52 0.0 11 16 0 -0.817052002665 -1.31000642307 -1.66644611304 0.0 0.0 0.0
1.14 1.52 0.0 12 16 0 2.40326083422 -0.183125865848 2.18591685229 0.0 0.0 0.0
1.235 1.52 0.0 13 16 0 0.73248077303 -0.21323601365 -0.728281507825 0.0 0.0 0.0
1.33 1.52 0.0 14 16 0 1.02728580584 -0.352149596763 -1.42770850116 0.0 0.0 0.0
1.425 1.52 0.0 15 16 0 -1.01751120813 -1.14072480546 -0.290607608078 0.0 0.0 0.0
1.52 1.52 0.0 16 16 0 1.6404139463 0.165058094349 -0.0322115594908 0.0 0.0 0.0
1.615 1.52 0.0 17 16 0 0.207737777049 0.391477921418 -0.427948591618 0.0 0.0 0.0
1.71 1.52 0.0 18 16 0 0.393825866738 0.213816326218 -0.451128010097 0.0 0.0 0.0
1.805 1.52 0.0 19 16 0 0.0732100441856 -1.06770058498 -0.340669519439 0.0 0.0 0.0
0.0 1.615 0.0 0 17 0 0.679412610136 -0.625035402833 0.355370269314 0.0 0.0 0.0
0.095 1.615 0.0 1 17 0 -2.50488889981 0.012123731818 -1.0176532304 0.0 0.0 0.0
0.19 1.615 0.0 2 17 0 -0.259270166266 1.31043158631 -0.713239519935 0.0 0.0 0.0
0.285 1.615 0.0 3 17 0 -2.66926415748 0.820176326924 0.625720901718 0.0 0.0 0.0
0.38 1.615 0.0 4 17 0 -0.108955036059 -1.4353433909 0.0242845188832 0.0 0.0 0.0
0.475 1.615 0.0 5 17 0 1.38979466086 0.590116364443 -0.283219642305 0.0 0.0 0.0
0.57 1.615 0.0 6 17 0 1.32483547023 1.04944222668 -1.11802626046 0.0 0.0 0.0
0.665 1.615 0.0 7 17 0 1.12863621373 -0.730532191617 -0.533424568916 0.0 0.0 0.0
0.76 1.615 0.0 8 17 0 2.19187843765 -0.529895783945 0.255947705137 0.0 0.0 0.0
0.855 1.615 0.0 9 17 0 0.253920509949 -0.746941364679 -1.37740147917 0.0 0.0 0.0
0.95 1.615 0.0 10 17 0 -0.366038629111 0.61335902102 -0.366621603597 0.0 0.0 0.0
1.045 1.615 0.0 11 17 0 1.17163965532 -0.705832650312 0.327230500626 0.0 0.0 0.0
1.14 1.615 0.0 12 17 0 1.76590456995 -0.215906325958 -0.420147894428 0.0 0.0 0.0
1.235 1.615 0.0 13 17 0 -0.198861241946 1.38696294834 -1.26703242971 0.0 0.0 0.0
1.33 1.615 0.0 14 17 0 -2.0976865261 -1.10774148087 0.461092469251 0.0 0.0 0.0
1.425 1.615 0.0 15 17 0 0.625326121032 0.0888039734492 -0.479867788305 0.0 0.0 0.0
1.52 1.615 0.0 16 17 0 -1.05114386342 -0.697633543434 0.828518368285 0.0 0.0 0.0
1.615 1.615 0.0 17 17 0 0.14417335901 -0.0661795714604 -0.257076011724 0.0 0.0 0.0
1.71 1.615 0.0 18 17 0 1.41645648381 -1.22453119246 -0.390101374975 0.0 0.0 0.0
1.805 1.615 0.0 19 17 0 -1.99572457276 0.00237202467712 1.01240312588 0.0 0.0 0.0
0.0 1.71 0.0 0 18 0 -1.2406775791 0.448952481407 0.309499262397 0.0 0.0 0.0
0.095 1.71 0.0 1 18 0 -0.513096041168 0.349690983329 -0.36785548251 0.0 0.0 0.0
0.19 1.71 0.0 2 18 0 -1.34990065714 0.207282010538 -1.11343245173 0.0 0.0 0.0
0.285 1.71 0.0 3 18 0 1.16010489815 0.939658994228 -0.331457259614 0.0 0.0 0.0
0.38 1.71 0.0 4 18 0 -0.989831729956 0.49035233234 -1.08077789202 0.0 0.0 0.0
0.475 1.71 0.0 5 18 0 0.376759882391 0.60840351711 -0.0216388204632 0.0 0.0 0.0
0.57 1.71 0.0 6 18 0 -0.917847048413 -0.473375026541 -0.477450822242 0.0 0.0 0.0
0.665 1.71 0.0 7 18 0 -1.57831422993 0.396995382252 0.996530448066 0.0 0.0 0.0
0.76 1.71 0.0 8 18 0 0.311007493702 0.999801312672 -0.851834510207 0.0 0.0 0.0
0.855 1.71 0.0 9 18 0 -0.341675312392 1.96062839149 -0.798000339537 0.0 0.0 0.0
0.95 1.71 0.0 10 18 0 1.41367103453 0.268470652247 -0.359701000569 0.0 0.0 0.0
1.045 1.71 0.0 11 18 0 -1.32988514859 -0.176445269606 -0.810133842423 0.0 0.0 0.0
1.14 1.71 0.0 12 18 0 -0.879489836979 0.383450798024 0.817271995894 0.0 0.0 0.0
1.235 1.71 0.0 13 18 0 -0.786420448496 -2.22784283929 -1.35250096021 0.0 0.0 0.0
1.33 1.71 0.0 14 18 0 0.587347121981 0.930121761853 -1.6164527157 0.0 0.0 0.0
1.425 1.71 0.0 15 18 0 -0.736284764285 -1.33966268537 -0.660210565999 0.0 0.0 0.0
1.52 1.71 0.0 16 18 0 -0.0864712475035 0.204422625626 -0.0792058205239 0.0 0.0 0.0