VARIABLES = X Y Z I J K U V W VORT_X VORT_Y VORT_Z
ZONE I= 30 J= 30 K= 30
0.0 0.0 0.0 0 0 0 0.501342120639 0.0888634435554 -1.59721507455 0.0 0.0 0.0
0.01 0.0 0.0 1 0 0 0.429411694945 0.4600602064 -0.0740152421261 0.0 0.0 0.0
0.02 0.0 0.0 2 0 0 -0.0547167816128 0.122500923987 1.05372120892 0.0 0.0 0.0
0.03 0.0 0.0 3 0 0 -0.583582538268 0.654435666955 0.712297431993 0.0 0.0 0.0
0.04 0.0 0.0 4 0 0 -0.298079812835 -0.604144781373 0.872938842 0.0 0.0 0.0
0.05 0.0 0.0 5 0 0 1.29951567695 0.207569521444 -1.27475958521 0.0 0.0 0.0
0.06 0.0 0.0 6 0 0 -0.370946375192 -0.589304482996 -0.289349968748 0.0 0.0 0.0
0.07 0.0 0.0 7 0 0 0.106308001124 1.10936818931 -0.619756235188 0.0 0.0 0.0
0.08 0.0 0.0 8 0 0 -0.785696685669 0.388376883092 0.598506919005 0.0 0.0 0.0
0.09 0.0 0.0 9 0 0 0.296245657548 1.7169835831 0.00801661449421 0.0 0.0 0.0
0.1 0.0 0.0 10 0 0 1.77783597622 -0.143330649659 1.37310100182 0.0 0.0 0.0
0.11 0.0 0.0 11 0 0 0.730254586434 -0.710264733012 0.890274446255 0.0 0.0 0.0
0.12 0.0 0.0 12 0 0 -1.69192604809 0.038032090008 -0.964670882384 0.0 0.0 0.0
0.13 0.0 0.0 13 0 0 3.00277840308 -1.18779842801 -0.155805452004 0.0 0.0 0.0
0.14 0.0 0.0 14 0 0 -0.215329466757 -0.0304932193025 -1.45631222781 0.0 0.0 0.0
0.15 0.0 0.0 15 0 0 1.07898577291 1.31886002407 0.925773611188 0.0 0.0 0.0
0.16 0.0 0.0 16 0 0 -0.461481408445 -1.79297008265 -0.178490425006 0.0 0.0 0.0
0.17 0.0 0.0 17 0 0 1.34670906171 0.498180045163 2.22282800455 0.0 0.0 0.0
0.18 0.0 0.0 18 0 0 0.414278627043 1.39304940756 0.371255198381 0.0 0.0 0.0
0.19 0.0 0.0 19 0 0 -2.22507744315 -0.462618617822 1.81852550806 0.0 0.0 0.0
0.2 0.0 0.0 20 0 0 0.386321945823 -0.907894250056 -0.501521087978 0.0 0.0 0.0
0.21 0.0 0.0 21 0 0 -0.961366291117 -0.491416968828 -1.20420019554 0.0 0.0 0.0
0.22 0.0 0.0 22 0 0 -0.330378932195 -0.715980691999 1.3631059721 0.0 0.0 0.0
0.23 0.0 0.0 23 0 0 -0.634962507851 -0.173597754458 -0.252870633305 0.0 0.0 0.0
0.24 0.0 0.0 24 0 0 -0.657703365087 -1.79099257874 -0.886769747016 0.0 0.0 0.0
0.25 0.0 0.0 25 0 0 -1.37441999234 -0.575470002599 -0.20532708106 0.0 0.0 0.0
0.26 0.0 0.0 26 0 0 0.762128900295 0.549897420246 -0.603651423886 0.0 0.0 0.0
0.27 0.0 0.0 27 0 0 0.483483698137 1.75786309057 -0.100262169344 0.0 0.0 0.0
0.28 0.0 0.0 28 0 0 0.248127765332 -0.0337274347865 1.86595661867 0.0 0.0 0.0
0.29 0.0 0.0 29 0 0 0.496208935914 1.66937586551 -0.302737702886 0.0 0.0 0.0
0.0 0.01 0.0 0 1 0 0.654069087041 -1.18730658318 -0.900282547732 0.0 0.0 0.0
0.01 0.01 0.0 1 1 0 0.795508399751 -0.205842222883 -1.4509533191 0.0 0.0 0.0
0.02 0.01 0.0 2 1 0 1.72198009701 -0.141829327007 0.318494870602 0.0 0.0 0.0
0.03 0.01 0.0 3 1 0 2.00412157544 1.42786639632 -0.126924076069 0.0 0.0 0.0
0.04 0.01 0.0 4 1 0 0.355757840717 -1.01474209159 0.36267015219 0.0 0.0 0.0
0.05 0.01 0.0 5 1 0 0.138408823122 -0.324048435602 2.40389951899 0.0 0.0 0.0
0.06 0.01 0.0 6 1 0 0.392803761208 0.505679130242 0.715016896317 0.0 0.0 0.0
0.07 0.01 0.0 7 1 0 0.831550156404 -1.508453226 0.36459144514 0.0 0.0 0.0
0.08 0.01 0.0 8 1 0 1.31709393539 -0.288441153631 0.617092490764 0.0 0.0 0.0
0.09 0.01 0.0 9 1 0 0.194537148119 -0.29501636071 -1.43390606153 0.0 0.0 0.0
0.1 0.01 0.0 10 1 0 -0.558707989218 0.316576936226 1.79962305811 0.0 0.0 0.0
0.11 0.01 0.0 11 1 0 0.466321949845 1.50717244735 0.24748046883 0.0 0.0 0.0
0.12 0.01 0.0 12 1 0 -0.0959803700387 0.780929481038 1.48719417183 0.0 0.0 0.0
0.13 0.01 0.0 13 1 0 -0.0995181034693 0.370057020597 -0.81878415966 0.0 0.0 0.0
0.14 0.01 0.0 14 1 0 -0.300180553873 -0.746559022675 0.274494633618 0.0 0.0 0.0
0.15 0.01 0.0 15 1 0 1.2523143794 -1.97088637421 0.970574298533 0.0 0.0 0.0
0.16 0.01 0.0 16 1 0 0.872115953124 -0.486265492189 -0.131336401305 0.0 0.0 0.0
0.17 0.01 0.0 17 1 0 -0.086209008076 1.39953770621 -0.990433718236 0.0 0.0 0.0
0.18 0.01 0.0 18 1 0 0.0531279658977 0.53950558916 1.25765839632 0.0 0.0 0.0
0.19 0.01 0.0 19 1 0 -0.719623800487 -0.665651719827 -0.653920528419 0.0 0.0 0.0
0.2 0.01 0.0 20 1 0 0.0428873470379 -0.699320037855 -0.00842207600199 0.0 0.0 0.0
0.21 0.01 0.0 21 1 0 0.544652692654 0.895885180853 1.00715704104 0.0 0.0 0.0
0.22 0.01 0.0 22 1 0 -0.543861760227 0.0703430825468 0.106586410119 0.0 0.0 0.0
0.23 0.01 0.0 23 1 0 -0.540612794116 -1.17699806359 -0.533681588901 0.0 0.0 0.0
0.24 0.01 0.0 24 1 0 -1.36736428106 1.29019169416 1.02036747989 0.0 0.0 0.0
0.25 0.01 0.0 25 1 0 1.2259785034 0.217524859616 0.721526029739 0.0 0.0 0.0
0.26 0.01 0.0 26 1 0 0.603828532829 1.81442589638 -0.12157174274 0.0 0.0 0.0
0.27 0.01 0.0 27 1 0 -1.24268002974 0.123229779648 1.92097868278 0.0 0.0 0.0
0.28 0.01 0.0 28 1 0 0.303300753201 1.26587514006 0.00649383443346 0.0 0.0 0.0
0.29 0.01 0.0 29 1 0 -0.399109719999 -1.31981687773 0.309608450677 0.0 0.0 0.0
0.0 0.02 0.0 0 2 0 -0.468520708993 -0.328510896899 -0.229259158714 0.0 0.0 0.0
0.01 0.02 0.0 1 2 0 -1.66822440695 0.159987667635 -0.493022062487 0.0 0.0 0.0
0.02 0.02 0.0 2 2 0 1.12371555425 0.590335739492 1.96462089466 0.0 0.0 0.0
0.03 0.02 0.0 3 2 0 -0.123939157737 1.04525089402 -1.5168717539 0.0 0.0 0.0
0.04 0.02 0.0 4 2 0 0.50182935318 -1.07807456725 -0.373147619771 0.0 0.0 0.0
0.05 0.02 0.0 5 2 0 0.525014626959 -0.0389851368132 -0.0955043543808 0.0 0.0 0.0
0.06 0.02 0.0 6 2 0 0.308733545777 0.181926502901 0.412670313058 0.0 0.0 0.0
0.07 0.02 0.0 7 2 0 -0.192490087925 -0.339147374843 -0.701367516085 0.0 0.0 0.0
0.08 0.02 0.0 8 2 0 -0.783360249091 1.13586906759 1.13559518478 0.0 0.0 0.0
0.09 0.02 0.0 9 2 0 0.858825391739 0.517031284351 0.142342147972 0.0 0.0 0.0
0.1 0.02 0.0 10 2 0 0.387892964552 -0.228391282301 0.861292519776 0.0 0.0 0.0
0.11 0.02 0.0 11 2 0 -1.24792153165 0.0830039456588 -0.80371253536 0.0 0.0 0.0
0.12 0.02 0.0 12 2 0 -0.160820259579 -0.250081514548 -0.0470157446423 0.0 0.0 0.0
0.13 0.02 0.0 13 2 0 -0.680675588052 -0.0950403164439 0.455088568381 0.0 0.0 0.0
0.14 0.02 0.0 14 2 0 -0.922379011426 -0.981945690314 -1.89034473275 0.0 0.0 0.0
0.15 0.02 0.0 15 2 0 0.154468213634 -0.129051843419 2.31593040461 0.0 0.0 0.0
0.16 0.02 0.0 16 2 0 1.51285198564 -0.788658961874 1.01460112493 0.0 0.0 0.0
0.17 0.02 0.0 17 2 0 0.68901704605 -0.119780810145 -1.51741474152 0.0 0.0 0.0
0.18 0.02 0.0 18 2 0 0.518695260945 0.450164535053 -0.0873031527493 0.0 0.0 0.0
0.19 0.02 0.0 19 2 0 1.25553770618 1.39823981035 -2.11233641694 0.0 0.0 0.0
0.2 0.02 0.0 20 2 0 1.3332699742 -2.23386416263 0.9319255467 0.0 0.0 0.0
0.21 0.02 0.0 21 2 0 0.664845240087 0.421494400295 0.0661498588238 0.0 0.0 0.0
0.22 0.02 0.0 22 2 0 -0.647721480536 1.96448694395 -1.76972750711 0.0 0.0 0.0
0.23 0.02 0.0 23 2 0 0.665459354639 0.392760697499 -0.550664833629 0.0 0.0 0.0
0.24 0.02 0.0 24 2 0 0.550558257922 0.423238320736 0.969815029729 0.0 0.0 0.0
0.25 0.02 0.0 25 2 0 -0.601631216221 1.16282892999 -0.185221356251 0.0 0.0 0.0
0.26 0.02 0.0 26 2 0 0.336611105936 0.891487186412 1.8278739808 0.0 0.0 0.0
0.27 0.02 0.0 27 2 0 -0.539692218621 -0.0461310891548 -1.29786803264 0.0 0.0 0.0
0.28 0.02 0.0 28 2 0 2.01725824006 -0.108691127462 -0.11358192991 0.0 0.0 0.0
0.29 0.02 0.0 29 2 0 -0.706256230084 -0.471761656544 0.656765517991 0.0 0.0 0.0
0.0 0.03 0.0 0 3 0 -2.07347734531 -0.479491735401 -1.78740962931 0.0 0.0 0.0
0.01 0.03 0.0 1 3 0 1.3090490739 -1.47011835163 0.303598166212 0.0 0.0 0.0
0.02 0.03 0.0 2 3 0 -0.865977388085 -0.788268296448 -0.90923478613 0.0 0.0 0.0
0.03 0.03 0.0 3 3 0 -2.28817752497 0.280358153254 0.194723888225 0.0 0.0 0.0
0.04 0.03 0.0 4 3 0 0.169389855816 -1.69835554927 -0.575090859472 0.0 0.0 0.0
0.05 0.03 0.0 5 3 0 -1.51957846669 -1.99312753033 0.408515758988 0.0 0.0 0.0
0.06 0.03 0.0 6 3 0 1.38996179307 0.606135140685 -0.0633099661542 0.0 0.0 0.0
0.07 0.03 0.0 7 3 0 -0.304822279995 0.132043845601 1.62746057627 0.0 0.0 0.0
0.08 0.03 0.0 8 3 0 -0.0285279125568 0.0138958316016 -0.265660968679 0.0 0.0 0.0
0.09 0.03 0.0 9 3 0 -0.124822773553 0.261899397803 -0.901322076736 0.0 0.0 0.0
0.1 0.03 0.0 10 3 0 -0.980475366795 0.020484565096 -0.557306206627 0.0 0.0 0.0
0.11 0.03 0.0 11 3 0 -0.894008757466 0.59124931254 -2.26728925018 0.0 0.0 0.0
0.12 0.03 0.0 12 3 0 0.533387927862 1.53744551963 0.566338479271 0.0 0.0 0.0
0.13 0.03 0.0 13 3 0 -0.00688808310624 1.467386881 -0.763492682052 0.0 0.0 0.0
0.14 0.03 0.0 14 3 0 0.259516397534 1.04094386209 1.02699929031 0.0 0.0 0.0
0.15 0.03 0.0 15 3 0 -0.992040642498 -0.254072988937 0.0457239866727 0.0 0.0 0.0
0.16 0.03 0.0 16 3 0 -0.422916461461 -1.79490820029 0.705431320611 0.0 0.0 0.0
0.17 0.03 0.0 17 3 0 0.316357367535 -0.608360030621 -0.638504699716 0.0 0.0 0.0
0.18 0.03 0.0 18 3 0 0.775200066161 -1.62787278477 0.0653023169184 0.0 0.0 0.0
0.19 0.03 0.0 19 3 0 1.5740810536 -0.871132134101 -1.12707997131 0.0 0.0 0.0
0.2 0.03 0.0 20 3 0 -0.255632900324 1.22575887099 0.282600874466 0.0 0.0 0.0
0.21 0.03 0.0 21 3 0 -0.745698564322 -0.184301357677 -2.23567226917 0.0 0.0 0.0
0.22 0.03 0.0 22 3 0 -0.667793508145 0.835058724035 -0.139840747173 0.0 0.0 0.0
0.23 0.03 0.0 23 3 0 0.0693948374502 -0.803333014978 0.656402394167 0.0 0.0 0.0
0.24 0.03 0.0 24 3 0 -0.196050281476 0.438976499518 -0.510620839481 0.0 0.0 0.0
0.25 0.03 0.0 25 3 0 -0.80546963785 -0.646570159026 -1.02995361207 0.0 0.0 0.0
0.26 0.03 0.0 26 3 0 -0.969591281826 -0.0238793361214 0.439222784351 0.0 0.0 0.0
0.27 0.03 0.0 27 3 0 1.17735534646 0.384070356559 0.215136161382 0.0 0.0 0.0
0.28 0.03 0.0 28 3 0 -0.493826437725 -0.662742043306 -0.559896992271 0.0 0.0 0.0
0.29 0.03 0.0 29 3 0 1.08518511874 -0.729586551166 -1.41809921613 0.0 0.0 0.0
0.0 0.04 0.0 0 4 0 -1.38681561731 -1.88213941827 1.69979863473 0.0 0.0 0.0
0.01 0.04 0.0 1 4 0 1.91531826397 1.46522359476 1.20586470486 0.0 0.0 0.0
0.02 0.04 0.0 2 4 0 1.50368559359 0.268953886162 -0.223884821145 0.0 0.0 0.0
0.03 0.04 0.0 3 4 0 -0.0491473875803 -2.06305880063 -1.49900073155 0.0 0.0 0.0
0.04 0.04 0.0 4 4 0 0.481448624175 -0.222119198696 0.597729144697 0.0 0.0 0.0
0.05 0.04 0.0 5 4 0 0.72142448429 0.0615841433508 1.10388003017 0.0 0.0 0.0
0.06 0.04 0.0 6 4 0 0.560920481602 1.43809997987 0.687825334788 0.0 0.0 0.0
0.07 0.04 0.0 7 4 0 1.16404141589 0.106311530089 -0.750006865671 0.0 0.0 0.0
0.08 0.04 0.0 8 4 0 0.0208273844589 0.987001176056 -1.24774497916 0.0 0.0 0.0
0.09 0.04 0.0 9 4 0 0.155769899836 1.27034109034 1.25712975759 0.0 0.0 0.0
0.1 0.04 0.0 10 4 0 0.318482173199 1.54238018044 -2.82901815327 0.0 0.0 0.0
0.11 0.04 0.0 11 4 0 -0.17439596645 0.850710182323 -3.20066341979 0.0 0.0 0.0
0.12 0.04 0.0 12 4 0 0.185301598677 -0.541760826772 -0.792472870877 0.0 0.0 0.0
0.13 0.04 0.0 13 4 0 0.759862590098 0.543456068889 -0.621783253425 0.0 0.0 0.0
0.14 0.04 0.0 14 4 0 2.44591998168 -1.28754763416 -0.0271375880695 0.0 0.0 0.0
0.15 0.04 0.0 15 4 0 0.885879444545 0.432688092497 0.514417879896 0.0 0.0 0.0
0.16 0.04 0.0 16 4 0 -1.52300605363 -1.01683540311 0.704771051379 0.0 0.0 0.0
0.17 0.04 0.0 17 4 0 -1.74770921649 1.64566592257 0.332402550228 0.0 0.0 0.0
0.18 0.04 0.0 18 4 0 -0.589422640148 -0.095554748694 -0.262707423361 0.0 0.0 0.0
0.19 0.04 0.0 19 4 0 0.308120482881 -0.378355542176 0.142548310995 0.0 0.0 0.0
0.2 0.04 0.0 20 4 0 -0.0357622349175 -1.43606095761 0.716881486102 0.0 0.0 0.0
0.21 0.04 0.0 21 4 0 0.563216058073 0.468512718521 -0.914593352001 0.0 0.0 0.0
0.22 0.04 0.0 22 4 0 -0.0883112237236 -0.589512894948 -0.739103291656 0.0 0.0 0.0
0.23 0.04 0.0 23 4 0 0.971226572952 -0.383190152326 0.0236658207245 0.0 0.0 0.0
0.24 0.04 0.0 24 4 0 -0.625019645808 0.86651907797 -1.31007758216 0.0 0.0 0.0
0.25 0.04 0.0 25 4 0 0.285148935918 1.23386484285 -0.279665805893 0.0 0.0 0.0
0.26 0.04 0.0 26 4 0 0.340704554066 1.33932896663 -1.512112191 0.0 0.0 0.0
0.27 0.04 0.0 27 4 0 0.267282934441 0.217911215822 1.02755149558 0.0 0.0 0.0
0.28 0.04 0.0 28 4 0 -1.23663358517 0.109742952131 0.132782492611 0.0 0.0 0.0
0.29 0.04 0.0 29 4 0 0.160655623311 -0.623543204536 0.234923719742 0.0 0.0 0.0
0.0 0.05 0.0 0 5 0 -0.336718089691 -0.265749321158 1.46573749198 0.0 0.0 0.0
0.01 0.05 0.0 1 5 0 1.51461107959 -0.357517307087 1.25184964914 0.0 0.0 0.0
0.02 0.05 0.0 2 5 0 0.22691736418 -1.03965802694 -0.582676770877 0.0 0.0 0.0
0.03 0.05 0.0 3 5 0 -0.106535357121 0.15799206296 1.27847461597 0.0 0.0 0.0
0.04 0.05 0.0 4 5 0 0.176843748831 -0.101247358964 0.704158457367 0.0 0.0 0.0
0.05 0.05 0.0 5 5 0 -1.22385288001 -1.17004832709 -0.609172996217 0.0 0.0 0.0
0.06 0.05 0.0 6 5 0 -0.797130005084 -0.0158555485933 -1.17076245703 0.0 0.0 0.0
0.07 0.05 0.0 7 5 0 1.18577936698 0.199984450515 -1.09343227697 0.0 0.0 0.0
0.08 0.05 0.0 8 5 0 -2.06232070945 -0.922623289994 0.446821982619 0.0 0.0 0.0
0.09 0.05 0.0 9 5 0 0.587655109435 -1.48432234141 1.28045740185 0.0 0.0 0.0
0.1 0.05 0.0 10 5 0 0.150688898097 0.173624592359 -0.220247883954 0.0 0.0 0.0
0.11 0.05 0.0 11 5 0 -1.70605767005 0.498153484472 -0.441898641171 0.0 0.0 0.0
0.12 0.05 0.0 12 5 0 -0.247355563059 -0.320952918234 1.35101798479 0.0 0.0 0.0
0.13 0.05 0.0 13 5 0 0.163779935795 -0.36862273863 0.812276662846 0.0 0.0 0.0
0.14 0.05 0.0 14 5 0 -0.761463563185 0.874142814842 -0.815731138327 0.0 0.0 0.0
0.15 0.05 0.0 15 5 0 0.3987161122 -2.65613153543 -0.320656765509 0.0 0.0 0.0
0.16 0.05 0.0 16 5 0 -0.265344594477 -1.7006324989 -0.981739561959 0.0 0.0 0.0
0.17 0.05 0.0 17 5 0 1.58433776154 0.650984838539 1.24612420501 0.0 0.0 0.0
0.18 0.05 0.0 18 5 0 0.22554090905 0.421512651602 -0.375493016181 0.0 0.0 0.0
0.19 0.05 0.0 19 5 0 1.32085698378 -0.869497567292 -1.84029238934 0.0 0.0 0.0
0.2 0.05 0.0 20 5 0 0.426516616553 1.29509804141 -2.00824496116 0.0 0.0 0.0
0.21 0.05 0.0 21 5 0 -0.206934396139 -0.659024762071 -0.22897182516 0.0 0.0 0.0
0.22 0.05 0.0 22 5 0 -1.95768384165 0.669868811713 -1.61295641413 0.0 0.0 0.0
0.23 0.05 0.0 23 5 0 0.0255743506736 -1.24063929858 2.8889064032 0.0 0.0 0.0
0.24 0.05 0.0 24 5 0 -0.106464181702 0.146454835103 0.627871805005 0.0 0.0 0.0
0.25 0.05 0.0 25 5 0 0.30175768095 -1.52422555212 -0.587138676791 0.0 0.0 0.0
0.26 0.05 0.0 26 5 0 -0.744098224974 -0.707432156242 0.267872309197 0.0 0.0 0.0
0.27 0.05 0.0 27 5 0 0.77993008948 0.505564848225 -0.29957807312 0.0 0.0 0.0
0.28 0.05 0.0 28 5 0 0.806132336253 -0.164030732936 -2.18420792461 0.0 0.0 0.0
0.29 0.05 0.0 29 5 0 -0.481665309738 -0.298713893195 1.21003983262 0.0 0.0 0.0
0.0 0.06 0.0 0 6 0 -0.649721156301 1.45390735973 0.156567657555 0.0 0.0 0.0
0.01 0.06 0.0 1 6 0 -1.4709955731 1.22214792914 0.457654399036 0.0 0.0 0.0
0.02 0.06 0.0 2 6 0 1.19451748724 -0.879382673179 0.292403773611 0.0 0.0 0.0
0.03 0.06 0.0 3 6 0 1.44687478706 -0.409078088587 0.930451349326 0.0 0.0 0.0
0.04 0.06 0.0 4 6 0 0.217646656655 0.21223800151 -2.23256159707 0.0 0.0 0.0
0.05 0.06 0.0 5 6 0 0.593131620609 -0.749471512716 -0.966393676001 0.0 0.0 0.0
0.06 0.06 0.0 6 6 0 -0.450780764274 0.375290836108 0.15924998898 0.0 0.0 0.0
0.07 0.06 0.0 7 6 0 -0.24682954306 -0.291158315769 -1.23775403831 0.0 0.0 0.0
0.08 0.06 0.0 8 6 0 -3.85582969326 -0.0621931863312 -1.31567271099 0.0 0.0 0.0
0.09 0.06 0.0 9 6 0 -0.481700639692 0.926916621975 0.6094979579 0.0 0.0 0.0
0.1 0.06 0.0 10 6 0 0.0687013193362 0.569951088132 -1.30452600827 0.0 0.0 0.0
0.11 0.06 0.0 11 6 0 0.481880725234 -0.157730973385 -1.54804408497 0.0 0.0 0.0
0.12 0.06 0.0 12 6 0 -0.574127243115 -0.695025919916 0.949335102012 0.0 0.0 0.0
0.13 0.06 0.0 13 6 0 -0.405199887209 1.38474662459 -0.68121458793 0.0 0.0 0.0
0.14 0.06 0.0 14 6 0 -0.508226891331 -0.66714820512 1.17266583309 0.0 0.0 0.0
0.15 0.06 0.0 15 6 0 0.243727808711 1.36241166525 0.61738386516 0.0 0.0 0.0
0.16 0.06 0.0 16 6 0 0.426521806819 -0.151631331005 -1.02144902632 0.0 0.0 0.0
0.17 0.06 0.0 17 6 0 0.665128137326 -0.646728306916 0.426430338754 0.0 0.0 0.0
0.18 0.06 0.0 18 6 0 1.98683106467 0.408403324489 0.312911916971 0.0 0.0 0.0
0.19 0.06 0.0 19 6 0 0.785970754849 0.0861182755593 -0.0499722163254 0.0 0.0 0.0
0.2 0.06 0.0 20 6 0 -0.708069571955 -0.108626505867 -0.185988905198 0.0 0.0 0.0
0.21 0.06 0.0 21 6 0 0.213333818087 -0.210386661756 0.661772520615 0.0 0.0 0.0
0.22 0.06 0.0 22 6 0 -0.0040187263946 0.344311086182 -1.5842631431 0.0 0.0 0.0
0.23 0.06 0.0 23 6 0 1.43470969003 -0.942186335337 -0.119786971449 0.0 0.0 0.0
0.24 0.06 0.0 24 6 0 -0.00816514802531 0.466360752226 -0.438278584125 0.0 0.0 0.0
0.25 0.06 0.0 25 6 0 0.172522652857 -0.245448012799 1.34850502661 0.0 0.0 0.0
0.26 0.06 0.0 26 6 0 -0.210199131172 0.891888187163 1.48416753243 0.0 0.0 0.0
0.27 0.06 0.0 27 6 0 1.29864271081 0.212001886708 -0.427687302004 0.0 0.0 0.0
0.28 0.06 0.0 28 6 0 -0.983981948355 -0.562901828315 0.844299509387 0.0 0.0 0.0
0.29 0.06 0.0 29 6 0 -0.326405745588 -1.44710430589 -0.764405525508 0.0 0.0 0.0
0.0 0.07 0.0 0 7 0 0.768092773545 1.19144538638 -0.577997670627 0.0 0.0 0.0
0.01 0.07 0.0 1 7 0 0.588717606173 -1.96482277131 -1.69056174604 0.0 0.0 0.0
0.02 0.07 0.0 2 7 0 -2.09101085179 0.00830527638564 0.204971810503 0.0 0.0 0.0
0.03 0.07 0.0 3 7 0 -0.231251967396 -0.689717977542 -1.13643008235 0.0 0.0 0.0
0.04 0.07 0.0 4 7 0 0.501186737631 0.48576279001 -1.27532656666 0.0 0.0 0.0
0.05 0.07 0.0 5 7 0 -0.11561315613 0.980399449745 -0.268276349439 0.0 0.0 0.0
0.06 0.07 0.0 6 7 0 1.06480032153 2.17584091888 0.0765045806894 0.0 0.0 0.0
0.07 0.07 0.0 7 7 0 0.112109257106 -0.354925694737 -1.1580772815 0.0 0.0 0.0
0.08 0.07 0.0 8 7 0 0.317107702351 0.162866698478 1.21410357626 0.0 0.0 0.0
0.09 0.07 0.0 9 7 0 -1.15876729025 -0.0157901342939 -1.49808176455 0.0 0.0 0.0
0.1 0.07 0.0 10 7 0 -0.611479657585 -0.76003684482 -0.849380716935 0.0 0.0 0.0
0.11 0.07 0.0 11 7 0 -0.854591780684 -0.678659479845 1.00029022817 0.0 0.0 0.0
0.12 0.07 0.0 12 7 0 -1.39605580441 -0.821631009063 -0.243932089384 0.0 0.0 0.0
0.13 0.07 0.0 13 7 0 -0.483800759423 0.722814287765 0.449131635924 0.0 0.0 0.0
0.14 0.07 0.0 14 7 0 -0.0164958074561 2.15190516549 -0.142236153906 0.0 0.0 0.0
0.15 0.07 0.0 15 7 0 0.27099148798 -0.0993169139188 1.79265663655 0.0 0.0 0.0
0.16 0.07 0.0 16 7 0 1.32435574855 -0.694396185356 -1.13092762429 0.0 0.0 0.0
0.17 0.07 0.0 17 7 0 2.27263927668 0.673629635348 0.299481087766 0.0 0.0 0.0
0.18 0.07 0.0 18 7 0 0.0998683227918 -1.17540532532 -1.7334439552 0.0 0.0 0.0
0.19 0.07 0.0 19 7 0 1.05247618386 1.68128861749 -0.497524785316 0.0 0.0 0.0
0.2 0.07 0.0 20 7 0 -0.633327870076 1.42555917727 0.3812158445 0.0 0.0 0.0
0.21 0.07 0.0 21 7 0 -0.109854811349 -0.44732172006 -2.32270415572 0.0 0.0 0.0
0.22 0.07 0.0 22 7 0 0.990806840945 -2.53606681128 -0.00212673154031 0.0 0.0 0.0
0.23 0.07 0.0 23 7 0 -1.15277532048 -1.43205231738 -0.902774784771 0.0 0.0 0.0
0.24 0.07 0.0 24 7 0 -1.14976210376 -0.533685258262 0.0130159495782 0.0 0.0 0.0
0.25 0.07 0.0 25 7 0 0.408082586018 0.0392446657043 -1.42629641676 0.0 0.0 0.0
0.26 0.07 0.0 26 7 0 -0.255314219955 -0.835561485575 -1.16652728153 0.0 0.0 0.0
0.27 0.07 0.0 27 7 0 -0.538640754515 -0.454853823792 0.278614145129 0.0 0.0 0.0
0.28 0.07 0.0 28 7 0 -0.970965485628 -1.0195171176 1.14874843927 0.0 0.0 0.0
0.29 0.07 0.0 29 7 0 0.27222750203 1.23598142742 0.98747266383 0.0 0.0 0.0
0.0 0.08 0.0 0 8 0 -1.82062269072 1.81189097634 -1.42974704582 0.0 0.0 0.0
0.01 0.08 0.0 1 8 0 -0.959507784722 -0.330188263204 0.189316224642 0.0 0.0 0.0
0.02 0.08 0.0 2 8 0 -0.351873550254 -0.4678231586 0.359462456946 0.0 0.0 0.0
0.03 0.08 0.0 3 8 0 1.32536157436 1.72817255998 0.1930811729 0.0 0.0 0.0
0.04 0.08 0.0 4 8 0 1.21540915841 0.358893567253 -0.640659329796 0.0 0.0 0.0
0.05 0.08 0.0 5 8 0 -0.383457483393 0.320650282933 -1.82957864531 0.0 0.0 0.0
0.06 0.08 0.0 6 8 0 0.555676548083 0.461271282368 -0.14937976012 0.0 0.0 0.0
0.07 0.08 0.0 7 8 0 0.36874152264 0.232993512427 -1.31830352206 0.0 0.0 0.0
0.08 0.08 0.0 8 8 0 1.98037864253 0.26443062774 0.916108728698 0.0 0.0 0.0
0.09 0.08 0.0 9 8 0 2.01519066221 0.976711954832 0.325234894539 0.0 0.0 0.0
0.1 0.08 0.0 10 8 0 0.492511002166 0.346162107262 -0.820773873225 0.0 0.0 0.0
0.11 0.08 0.0 11 8 0 -0.171472498423 1.29640783261 -0.63433058222 0.0 0.0 0.0
0.12 0.08 0.0 12 8 0 1.0218833353 -0.0633726463043 0.446590084579 0.0 0.0 0.0
0.13 0.08 0.0 13 8 0 -0.0862259068745 0.0489692082583 -0.291903626554 0.0 0.0 0.0
0.14 0.08 0.0 14 8 0 -0.447662297527 1.06695012068 0.273251101335 0.0 0.0 0.0
0.15 0.08 0.0 15 8 0 -1.52990410814 -0.716762499124 -0.113831692196 0.0 0.0 0.0
0.16 0.08 0.0 16 8 0 0.855346635553 0.724893120535 -0.514246026712 0.0 0.0 0.0
0.17 0.08 0.0 17 8 0 0.467209446532 -2.16461940322 0.229877681295 0.0 0.0 0.0
0.18 0.08 0.0 18 8 0 -2.79691867325 -1.12943729056 1.43521566061 0.0 0.0 0.0
0.19 0.08 0.0 19 8 0 -1.16916816975 -0.71440429856 0.40476649381 0.0 0.0 0.0
0.2 0.08 0.0 20 8 0 0.562737257934 -0.14436561907 0.368408404898 0.0 0.0 0.0
0.21 0.08 0.0 21 8 0 -0.478148151064 0.142313564613 0.0657610482789 0.0 0.0 0.0
0.22 0.08 0.0 22 8 0 -2.08576774682 0.266090468206 -0.0423989730472 0.0 0.0 0.0
0.23 0.08 0.0 23 8 0 -1.23693941372 0.920620457244 -0.205746798183 0.0 0.0 0.0
0.24 0.08 0.0 24 8 0 0.439910739994 -0.356601502886 -0.467825115797 0.0 0.0 0.0
0.25 0.08 0.0 25 8 0 -0.82370925763 -0.786431134018 0.395028644506 0.0 0.0 0.0
0.26 0.08 0.0 26 8 0 -0.4956118518 0.746000529914 -0.841521171189 0.0 0.0 0.0
0.27 0.08 0.0 27 8 0 1.32246345318 0.550965275937 -0.312049647257 0.0 0.0 0.0
0.28 0.08 0.0 28 8 0 -1.01829490188 0.392470523709 0.358390870556 0.0 0.0 0.0
0.29 0.08 0.0 29 8 0 0.435727108417 -0.234065981704 -1.05595698953 0.0 0.0 0.0
0.0 0.09 0.0 0 9 0 0.132764565497 -0.387308567978 -0.48237611175 0.0 0.0 0.0
0.01 0.09 0.0 1 9 0 -0.410555600294 -0.65226319259 0.673737229644 0.0 0.0 0.0
0.02 0.09 0.0 2 9 0 -1.19960331247 -0.831060125962 1.32044109093 0.0 0.0 0.0
0.03 0.09 0.0 3 9 0 1.3285633218 -0.521989949493 -0.414500076181 0.0 0.0 0.0
0.04 0.09 0.0 4 9 0 0.653928936092 -0.248110794342 -0.0371872147514 0.0 0.0 0.0
0.05 0.09 0.0 5 9 0 0.622563933173 0.86193583729 0.64595470716 0.0 0.0 0.0
0.06 0.09 0.0 6 9 0 -0.157777968606 0.11719816721 0.859468413396 0.0 0.0 0.0
0.07 0.09 0.0 7 9 0 1.17961820782 -1.79650781482 1.57545925333 0.0 0.0 0.0
0.08 0.09 0.0 8 9 0 1.47851182624 0.683078433237 -0.724899653054 0.0 0.0 0.0
0.09 0.09 0.0 9 9 0 0.40361045354 0.0870208678057 1.22630046668 0.0 0.0 0.0
0.1 0.09 0.0 10 9 0 0.696365277389 0.888962656769 -1.47276956723 0.0 0.0 0.0
0.11 0.09 0.0 11 9 0 1.58943280875 -0.842111004841 0.317324662545 0.0 0.0 0.0
0.12 0.09 0.0 12 9 0 -0.521471195987 -0.0632251843227 0.211842027929 0.0 0.0 0.0
0.13 0.09 0.0 13 9 0 -1.3102922025 1.06120730607 1.50473691415 0.0 0.0 0.0
0.14 0.09 0.0 14 9 0 -2.016239644 0.828699283149 0.657172071596 0.0 0.0 0.0
0.15 0.09 0.0 15 9 0 -0.0399087601395 -1.0343876789 -0.341853650449 0.0 0.0 0.0
0.16 0.09 0.0 16 9 0 0.63275152446 0.264127890103 1.54303447046 0.0 0.0 0.0
0.17 0.09 0.0 17 9 0 -1.09932355351 0.0191146264675 0.374630435282 0.0 0.0 0.0
0.18 0.09 0.0 18 9 0 0.33473916833 0.413704257902 -0.804654017013 0.0 0.0 0.0
0.19 0.09 0.0 19 9 0 -0.672455397808 1.00497420344 0.815720786348 0.0 0.0 0.0
0.2 0.09 0.0 20 9 0 -0.241316142376 2.11483340338 -0.888448449772 0.0 0.0 0.0
0.21 0.09 0.0 21 9 0 -1.53061413496 -0.49646076566 1.30153537535 0.0 0.0 0.0
0.22 0.09 0.0 22 9 0 0.823423035112 0.590808391693 0.38239708632 0.0 0.0 0.0
0.23 0.09 0.0 23 9 0 -0.639066932038 -0.490006310855 0.568019073166 0.0 0.0 0.0
0.24 0.09 0.0 24 9 0 0.241877921417 -2.10610199843 0.712340298689 0.0 0.0 0.0
0.25 0.09 0.0 25 9 0 0.500940017924 0.770169033197 -0.2726445994 0.0 0.0 0.0
0.26 0.09 0.0 26 9 0 0.0683749901115 -0.216502429911 0.605157709143 0.0 0.0 0.0
0.27 0.09 0.0 27 9 0 -0.829535605096 0.560389749986 -1.01951231821 0.0 0.0 0.0
0.28 0.09 0.0 28 9 0 0.287020934716 0.265964722087 -2.20733815385 0.0 0.0 0.0
0.29 0.09 0.0 29 9 0 2.17237646639 -0.0841014115567 -0.20822401735 0.0 0.0 0.0
0.0 0.1 0.0 0 10 0 0.831513170795 -1.27955050085 1.03391393342 0.0 0.0 0.0
0.01 0.1 0.0 1 10 0 0.71781888791 -0.706033655257 -1.40082184052 0.0 0.0 0.0
0.02 0.1 0.0 2 10 0 -0.175140395314 0.774734480092 -0.990150220761 0.0 0.0 0.0
0.03 0.1 0.0 3 10 0 -0.285102131202 -1.16072744689 0.235005534817 0.0 0.0 0.0
0.04 0.1 0.0 4 10 0 -1.89748507635 -0.327642413824 -1.7344367446 0.0 0.0 0.0
0.05 0.1 0.0 5 10 0 -0.433409544134 0.54605452149 -0.756639591674 0.0 0.0 0.0
0.06 0.1 0.0 6 10 0 0.907450940199 0.200291013488 -0.807441896196 0.0 0.0 0.0
0.07 0.1 0.0 7 10 0 -1.10865570531 0.370015497878 1.54039735302 0.0 0.0 0.0
0.08 0.1 0.0 8 10 0 0.663247607849 1.16870813206 -0.14513277637 0.0 0.0 0.0
0.09 0.1 0.0 9 10 0 -0.361038822514 0.91768456919 1.32754585422 0.0 0.0 0.0
0.1 0.1 0.0 10 10 0 -1.08095971153 -1.57457939096 0.167838165495 0.0 0.0 0.0
0.11 0.1 0.0 11 10 0 1.02492200099 0.246097596406 0.0989326860592 0.0 0.0 0.0
0.12 0.1 0.0 12 10 0 -0.347875855264 0.681953859516 -1.11477815415 0.0 0.0 0.0
0.13 0.1 0.0 13 10 0 -0.863385078951 1.07448770897 0.0568864470711 0.0 0.0 0.0
0.14 0.1 0.0 14 10 0 -0.27837907876 0.0624775335887 -2.37136150288 0.0 0.0 0.0
0.15 0.1 0.0 15 10 0 0.853893388344 -0.393673224837 -0.606171814725 0.0 0.0 0.0
0.16 0.1 0.0 16 10 0 1.10880351529 -0.0183151184935 2.20397239601 0.0 0.0 0.0
0.17 0.1 0.0 17 10 0 -0.656364216372 0.48329930619 -0.616160215574 0.0 0.0 0.0
0.18 0.1 0.0 18 10 0 -0.533265629539 0.657614087846 -1.102203268 0.0 0.0 0.0
0.19 0.1 0.0 19 10 0 -0.193189304357 0.400960891324 0.3769696498 0.0 0.0 0.0
0.2 0.1 0.0 20 10 0 1.3697786706 -1.63072204965 0.755104958925 0.0 0.0 0.0
0.21 0.1 0.0 21 10 0 -0.45152381587 0.949256205491 1.75675771709 0.0 0.0 0.0
0.22 0.1 0.0 22 10 0 0.619591590673 -0.563022607621 0.929551498824 0.0 0.0 0.0
0.23 0.1 0.0 23 10 0 -0.0162618569456 2.22677426377 0.178624416043 0.0 0.0 0.0
0.24 0.1 0.0 24 10 0 0.661695240188 -1.43267510498 0.714416973808 0.0 0.0 0.0
0.25 0.1 0.0 25 10 0 0.68136184206 0.610485980311 -1.47955563783 0.0 0.0 0.0
0.26 0.1 0.0 26 10 0 -0.163890046962 1.20216657087 0.127706640382 0.0 0.0 0.0
0.27 0.1 0.0 27 10 0 0.109674034485 0.187812554789 -0.768921569174 0.0 0.0 0.0
0.28 0.1 0.0 28 10 0 0.9303884986 1.84628048231 -0.805297476644 0.0 0.0 0.0
0.29 0.1 0.0 29 10 0 -0.188336978254 -1.06168323371 0.515653134332 0.0 0.0 0.0
0.0 0.11 0.0 0 11 0 -1.069009461 0.414569550039 1.24279954794 0.0 0.0 0.0
0.01 0.11 0.0 1 11 0 0.491890084514 -0.799955362965 -2.01348736081 0.0 0.0 0.0
0.02 0.11 0.0 2 11 0 0.115501393829 -0.839382906466 0.776838565778 0.0 0.0 0.0
0.03 0.11 0.0 3 11 0 -0.209135843552 -0.497506172157 -0.597374378673 0.0 0.0 0.0
0.04 0.11 0.0 4 11 0 1.13602631802 1.37163446856 -1.69081143477 0.0 0.0 0.0
0.05 0.11 0.0 5 11 0 -1.88609924685 0.221174092467 2.3328876418 0.0 0.0 0.0
0.06 0.11 0.0 6 11 0 -0.94118523578 -2.16233787006 -0.426320207671 0.0 0.0 0.0
0.07 0.11 0.0 7 11 0 -0.14513201379 -0.339517854205 -0.502779748733 0.0 0.0 0.0
0.08 0.11 0.0 8 11 0 -0.474997509657 0.996780081367 0.254096613465 0.0 0.0 0.0
0.09 0.11 0.0 9 11 0 1.64036744333 -0.360338311186 1.64577092729 0.0 0.0 0.0
0.1 0.11 0.0 10 11 0 0.191666439667 -0.399390637014 -0.412637996835 0.0 0.0 0.0
0.11 0.11 0.0 11 11 0 1.39558030835 -0.463635733885 -0.946773610796 0.0 0.0 0.0
0.12 0.11 0.0 12 11 0 0.467754439343 -2.03622522709 0.097822688343 0.0 0.0 0.0
0.13 0.11 0.0 13 11 0 0.441656685874 -0.391268555479 1.56153430738 0.0 0.0 0.0
0.14 0.11 0.0 14 11 0 0.440583139216 0.56866619043 0.995122840774 0.0 0.0 0.0
0.15 0.11 0.0 15 11 0 0.469574378664 -2.14084863606 1.0658954559 0.0 0.0 0.0
0.16 0.11 0.0 16 11 0 -0.294091161708 -0.616844013328 -0.568725727325 0.0 0.0 0.0
0.17 0.11 0.0 17 11 0 0.895865201446 -0.146057324324 -0.0409970119809 0.0 0.0 0.0
0.18 0.11 0.0 18 11 0 1.42353114436 0.46376190896 1.59975077718 0.0 0.0 0.0
0.19 0.11 0.0 19 11 0 2.17298812744 -0.108488101614 -0.627645812733 0.0 0.0 0.0
0.2 0.11 0.0 20 11 0 0.531517253837 0.0468568291869 0.581571877797 0.0 0.0 0.0
0.21 0.11 0.0 21 11 0 -0.0114270155536 -0.420518550365 -1.93415910372 0.0 0.0 0.0
0.22 0.11 0.0 22 11 0 -1.08677487843 2.476039921 -0.209286576692 0.0 0.0 0.0
0.23 0.11 0.0 23 11 0 -0.768386415757 -0.614484453819 -0.67709177841 0.0 0.0 0.0
0.24 0.11 0.0 24 11 0 -0.318494438348 -1.13413695655 0.209990701452 0.0 0.0 0.0
0.25 0.11 0.0 25 11 0 0.240500290377 -0.74636090694 0.778214323365 0.0 0.0 0.0
0.26 0.11 0.0 26 11 0 0.154353012677 -0.389634621875 0.017370635666 0.0 0.0 0.0
0.27 0.11 0.0 27 11 0 -0.430914831865 -0.960089293173 -1.67819676044 0.0 0.0 0.0
0.28 0.11 0.0 28 11 0 0.0530299455283 -0.256371173162 -1.97254831372 0.0 0.0 0.0
0.29 0.11 0.0 29 11 0 -0.054292840387 0.7716999514 0.110898676005 0.0 0.0 0.0
0.0 0.12 0.0 0 12 0 0.755231792889 0.357348129768 0.969034167274 0.0 0.0 0.0
0.01 0.12 0.0 1 12 0 -1.36363718345 0.352021985683 0.672079937634 0.0 0.0 0.0
0.02 0.12 0.0 2 12 0 -0.347773300411 -0.53167777039 0.890386829375 0.0 0.0 0.0
0.03 0.12 0.0 3 12 0 -0.762496549613 1.12386313668 -0.277865312926 0.0 0.0 0.0
0.04 0.12 0.0 4 12 0 0.680223695767 -1.40053968892 -0.0270893554882 0.0 0.0 0.0
0.05 0.12 0.0 5 12 0 0.0408616022664 -0.381451760054 -1.47200824347 0.0 0.0 0.0
0.06 0.12 0.0 6 12 0 -1.68073668195 0.187201553485 0.311958492773 0.0 0.0 0.0
0.07 0.12 0.0 7 12 0 -0.999113566125 -0.0200755150986 -0.615659749676 0.0 0.0 0.0
0.08 0.12 0.0 8 12 0 1.52364848401 0.104268737139 0.00543406051901 0.0 0.0 0.0
0.09 0.12 0.0 9 12 0 0.461107068571 -0.619162219186 -0.645948212582 0.0 0.0 0.0
0.1 0.12 0.0 10 12 0 0.359649118868 -0.806873514309 0.591374158045 0.0 0.0 0.0
0.11 0.12 0.0 11 12 0 1.62846322458 1.44692624902 0.172765341223 0.0 0.0 0.0
0.12 0.12 0.0 12 12 0 0.688684874104 0.192806089066 -0.184240477941 0.0 0.0 0.0
0.13 0.12 0.0 13 12 0 2.26264733334 0.00294563464541 -1.04194327242 0.0 0.0 0.0
0.14 0.12 0.0 14 12 0 -0.555978543066 -1.03340752 -0.360375915101 0.0 0.0 0.0
0.15 0.12 0.0 15 12 0 0.556407859924 -0.64723509798 -0.306472624148 0.0 0.0 0.0
0.16 0.12 0.0 16 12 0 -0.714029377136 1.11103813452 -0.114833256903 0.0 0.0 0.0
0.17 0.12 0.0 17 12 0 -1.75102299432 -1.31694802738 -0.379005291998 0.0 0.0 0.0
0.18 0.12 0.0 18 12 0 0.352529954969 1.0704520685 1.11293100389 0.0 0.0 0.0
0.19 0.12 0.0 19 12 0 1.90754549101 -1.16965628655 -0.585582386441 0.0 0.0 0.0
0.2 0.12 0.0 20 12 0 1.71993989714 -0.0656581336791 0.213841975157 0.0 0.0 0.0
0.21 0.12 0.0 21 12 0 0.570594322093 -1.44338066963 -2.21961950621 0.0 0.0 0.0
0.22 0.12 0.0 22 12 0 -0.78120621037 0.102209778299 0.041975012601 0.0 0.0 0.0