VARIABLES = X Y Z I J K U V W VORT_X VORT_Y VORT_Z
ZONE I= 20 J= 20 K= 20
0.0 0.0 0.0 0 0 0 -1.66037313753 1.21357825124 0.0413066671173 0.0 0.0 0.0
0.095 0.0 0.0 1 0 0 0.833727533328 1.91401491023 -0.263081840105 0.0 0.0 0.0
0.19 0.0 0.0 2 0 0 0.317867683295 -0.0101566730696 -0.0714844174572 0.0 0.0 0.0
0.285 0.0 0.0 3 0 0 -0.361353487268 0.274338875257 1.2599505839 0.0 0.0 0.0
0.38 0.0 0.0 4 0 0 0.586831566195 0.425778539616 -0.810415353266 0.0 0.0 0.0
0.475 0.0 0.0 5 0 0 1.74743869456 0.59730960279 1.41223640716 0.0 0.0 0.0
0.57 0.0 0.0 6 0 0 -0.87594276827 -0.279844918506 -0.0320131681909 0.0 0.0 0.0
0.665 0.0 0.0 7 0 0 0.242292462299 0.0472072999078 0.209091231242 0.0 0.0 0.0
0.76 0.0 0.0 8 0 0 -0.408998940856 0.891053217587 -0.257861356794 0.0 0.0 0.0
0.855 0.0 0.0 9 0 0 -3.1365115751 -0.333145559433 -0.366791814556 0.0 0.0 0.0
0.95 0.0 0.0 10 0 0 0.481650691182 -0.759580166186 -0.979728776364 0.0 0.0 0.0
1.045 0.0 0.0 11 0 0 0.84101553902 -1.27933447297 0.445513924169 0.0 0.0 0.0
1.14 0.0 0.0 12 0 0 -1.06914250251 1.18900790345 0.26120063826 0.0 0.0 0.0
1.235 0.0 0.0 13 0 0 -0.644075008123 -0.62304787373 1.16703452189 0.0 0.0 0.0
1.33 0.0 0.0 14 0 0 -0.352968078519 1.44712267596 -1.20070880048 0.0 0.0 0.0
1.425 0.0 0.0 15 0 0 1.6350014841 1.86865069791 0.367241934637 0.0 0.0 0.0
1.52 0.0 0.0 16 0 0 0.498228666541 1.09343212244 -0.976040270909 0.0 0.0 0.0
1.615 0.0 0.0 17 0 0 -0.0829382556932 -0.403930786285 -0.0721966610775 0.0 0.0 0.0
1.71 0.0 0.0 18 0 0 -0.836278422449 -0.0923601488255 0.153422029259 0.0 0.0 0.0
1.805 0.0 0.0 19 0 0 -2.39015592682 -0.179022791155 1.50226208159 0.0 0.0 0.0
0.0 0.095 0.0 0 1 0 0.149420806841 -0.071224642121 -0.129641222531 0.0 0.0 0.0
0.095 0.095 0.0 1 1 0 0.0957760249795 -0.428969154913 0.600763440948 0.0 0.0 0.0
0.19 0.095 0.0 2 1 0 0.127185649922 0.735996244289 0.155190991571 0.0 0.0 0.0
0.285 0.095 0.0 3 1 0 -0.838566516587 0.648749802613 -0.239815933751 0.0 0.0 0.0
0.38 0.095 0.0 4 1 0 -1.65779267349 -0.865803839935 -1.90334255167 0.0 0.0 0.0
0.475 0.095 0.0 5 1 0 1.00099864379 -1.16349051318 -0.983012684767 0.0 0.0 0.0
0.57 0.095 0.0 6 1 0 1.13844293023 -1.53665695009 1.79841648542 0.0 0.0 0.0
0.665 0.095 0.0 7 1 0 -0.224700733454 -0.916079314484 -0.47923751834 0.0 0.0 0.0
0.76 0.095 0.0 8 1 0 1.01974964127 0.209941811744 -0.742576679188 0.0 0.0 0.0
0.855 0.095 0.0 9 1 0 -2.07493329844 0.970539052372 -0.0414707160869 0.0 0.0 0.0
0.95 0.095 0.0 10 1 0 -0.493644026386 0.913061538247 -0.394687007087 0.0 0.0 0.0
1.045 0.095 0.0 11 1 0 0.0728666310536 -0.749554793503 2.30928406908 0.0 0.0 0.0
1.14 0.095 0.0 12 1 0 -0.295996692325 -0.626321710993 0.260353827026 0.0 0.0 0.0
1.235 0.095 0.0 13 1 0 0.412772404229 1.82587411537 0.886831154719 0.0 0.0 0.0
1.33 0.095 0.0 14 1 0 -0.658929817828 0.844203519874 0.806232908312 0.0 0.0 0.0
1.425 0.095 0.0 15 1 0 0.118440840276 -0.995729152915 -1.6862097746 0.0 0.0 0.0
1.52 0.095 0.0 16 1 0 -0.0460087995463 1.38889922806 1.19670871338 0.0 0.0 0.0
1.615 0.095 0.0 17 1 0 -0.291242623568 -0.479667456878 -0.231019200211 0.0 0.0 0.0
1.71 0.095 0.0 18 1 0 0.89899613131 -1.08219624202 -0.828629680382 0.0 0.0 0.0
1.805 0.095 0.0 19 1 0 -1.09012140599 -1.30098043246 1.05700547265 0.0 0.0 0.0
0.0 0.19 0.0 0 2 0 1.34740175686 -0.126950681288 -0.0977177111108 0.0 0.0 0.0
0.095 0.19 0.0 1 2 0 -0.153786491895 -0.950850934314 0.454637434686 0.0 0.0 0.0
0.19 0.19 0.0 2 2 0 -0.709003194517 1.07240418777 -0.859321834019 0.0 0.0 0.0
0.285 0.19 0.0 3 2 0 -1.72540761008 1.51752110673 0.0968779654531 0.0 0.0 0.0
0.38 0.19 0.0 4 2 0 1.3503913822 -0.31252914236 -1.21172178969 0.0 0.0 0.0
0.475 0.19 0.0 5 2 0 1.06295323576 -0.481774790334 0.709445253639 0.0 0.0 0.0
0.57 0.19 0.0 6 2 0 -0.532066129456 -0.0473871249944 0.564008342618 0.0 0.0 0.0
0.665 0.19 0.0 7 2 0 0.362695530582 -0.494191100175 0.155240682756 0.0 0.0 0.0
0.76 0.19 0.0 8 2 0 1.46167937819 -1.76598934185 -2.40871659594 0.0 0.0 0.0
0.855 0.19 0.0 9 2 0 1.74597742222 0.562286498515 0.760194644396 0.0 0.0 0.0
0.95 0.19 0.0 10 2 0 -0.0137871268572 -0.424520926296 1.25661517318 0.0 0.0 0.0
1.045 0.19 0.0 11 2 0 -0.640156787525 0.269895888884 -1.82484270188 0.0 0.0 0.0
1.14 0.19 0.0 12 2 0 1.35642087093 0.482014104361 -0.113427373119 0.0 0.0 0.0
1.235 0.19 0.0 13 2 0 -0.287207633183 0.306865328422 -2.43566344218 0.0 0.0 0.0
1.33 0.19 0.0 14 2 0 1.66290911003 0.00493816451131 0.854790464725 0.0 0.0 0.0
1.425 0.19 0.0 15 2 0 0.69862612709 -0.276038163879 1.15696970156 0.0 0.0 0.0
1.52 0.19 0.0 16 2 0 0.906755397493 -0.310427271012 1.49520182741 0.0 0.0 0.0
1.615 0.19 0.0 17 2 0 0.10049980062 0.00959369592449 0.643452838712 0.0 0.0 0.0
1.71 0.19 0.0 18 2 0 0.274877760978 0.366691419088 0.720319502969 0.0 0.0 0.0
1.805 0.19 0.0 19 2 0 0.838048127583 0.679605014673 0.486396867224 0.0 0.0 0.0
0.0 0.285 0.0 0 3 0 -0.0172249819027 0.151123669251 -0.373618949782 0.0 0.0 0.0
0.095 0.285 0.0 1 3 0 -0.576798744394 0.270167663179 0.138119067597 0.0 0.0 0.0
0.19 0.285 0.0 2 3 0 -0.273996441739 1.28139859452 -0.251266320241 0.0 0.0 0.0
0.285 0.285 0.0 3 3 0 1.51807793063 -1.77510891654 0.75275395919 0.0 0.0 0.0
0.38 0.285 0.0 4 3 0 0.335105137557 0.433938298559 0.164278662604 0.0 0.0 0.0
0.475 0.285 0.0 5 3 0 -0.364314942011 1.38348190752 0.6775115705 0.0 0.0 0.0
0.57 0.285 0.0 6 3 0 -0.15299352007 -1.41211164622 -0.391284920929 0.0 0.0 0.0
0.665 0.285 0.0 7 3 0 0.697965770193 -0.702718607353 -0.422525262092 0.0 0.0 0.0
0.76 0.285 0.0 8 3 0 -1.59043014352 -1.72584807955 0.937466596637 0.0 0.0 0.0
0.855 0.285 0.0 9 3 0 -0.242119687496 -1.01922820931 0.580304615666 0.0 0.0 0.0
0.95 0.285 0.0 10 3 0 -0.818890563757 -0.998594064758 0.906567235721 0.0 0.0 0.0
1.045 0.285 0.0 11 3 0 0.759990493912 1.20428527715 0.954052983891 0.0 0.0 0.0
1.14 0.285 0.0 12 3 0 -0.567757686599 -1.34294408805 0.432355846851 0.0 0.0 0.0
1.235 0.285 0.0 13 3 0 -0.0863352451887 -0.518142639492 1.4856302043 0.0 0.0 0.0
1.33 0.285 0.0 14 3 0 -0.411090790501 0.388293608351 1.62744703723 0.0 0.0 0.0
1.425 0.285 0.0 15 3 0 -1.35179138215 -0.799650086878 -0.121315489855 0.0 0.0 0.0
1.52 0.285 0.0 16 3 0 2.58042961854 0.959755318661 1.11826493921 0.0 0.0 0.0
1.615 0.285 0.0 17 3 0 0.425777495456 -1.09569289399 2.94957083376 0.0 0.0 0.0
1.71 0.285 0.0 18 3 0 -0.688350801214 -0.730600674858 -0.0586049614967 0.0 0.0 0.0
1.805 0.285 0.0 19 3 0 1.28690468575 -0.79082111496 0.681838065702 0.0 0.0 0.0
0.0 0.38 0.0 0 4 0 -0.700967265137 -0.32789625267 0.375433140895 0.0 0.0 0.0
0.095 0.38 0.0 1 4 0 -0.912608940004 0.416419652598 -0.999585477728 0.0 0.0 0.0
0.19 0.38 0.0 2 4 0 0.793146079312 0.246453327497 -1.09427045576 0.0 0.0 0.0
0.285 0.38 0.0 3 4 0 0.170215541053 1.96874325536 0.300942384212 0.0 0.0 0.0
0.38 0.38 0.0 4 4 0 -0.256048322598 -1.66685922768 -0.706104735463 0.0 0.0 0.0
0.475 0.38 0.0 5 4 0 -0.213635724882 0.918286993957 0.987615147036 0.0 0.0 0.0
0.57 0.38 0.0 6 4 0 -1.3365583522 -0.637412300153 0.138330776914 0.0 0.0 0.0
0.665 0.38 0.0 7 4 0 -0.591619601271 2.12222643747 -0.779248957607 0.0 0.0 0.0
0.76 0.38 0.0 8 4 0 -1.40057713519 -1.28070795579 -1.35688431564 0.0 0.0 0.0
0.855 0.38 0.0 9 4 0 1.08891929767 0.795302175579 -1.08605731468 0.0 0.0 0.0
0.95 0.38 0.0 10 4 0 0.229421849355 1.19657014738 1.72436030349 0.0 0.0 0.0
1.045 0.38 0.0 11 4 0 -1.7461491262 -1.27803774353 -0.318643983823 0.0 0.0 0.0
1.14 0.38 0.0 12 4 0 -0.115019749744 0.29519543277 0.653873668397 0.0 0.0 0.0
1.235 0.38 0.0 13 4 0 0.288062028554 -0.10282330833 -0.318338434419 0.0 0.0 0.0
1.33 0.38 0.0 14 4 0 0.0219626398519 -0.659575956678 -0.72602440046 0.0 0.0 0.0
1.425 0.38 0.0 15 4 0 -1.01330457389 -1.56228941089 0.290504037244 0.0 0.0 0.0
1.52 0.38 0.0 16 4 0 -1.01650044967 0.582275483887 -2.21767779274 0.0 0.0 0.0
1.615 0.38 0.0 17 4 0 -0.190372065683 -0.200769867424 -0.680052323419 0.0 0.0 0.0
1.71 0.38 0.0 18 4 0 -0.8081609874 -0.441199973489 0.745079490544 0.0 0.0 0.0
1.805 0.38 0.0 19 4 0 1.49819702015 1.68704906678 1.92706774793 0.0 0.0 0.0
0.0 0.475 0.0 0 5 0 -0.317184395627 -0.142553453837 -0.167776007097 0.0 0.0 0.0
0.095 0.475 0.0 1 5 0 0.730435057629 -0.959619912486 -0.0977657281169 0.0 0.0 0.0
0.19 0.475 0.0 2 5 0 0.953997131819 -1.74202989564 -0.790960507843 0.0 0.0 0.0
0.285 0.475 0.0 3 5 0 1.70228918201 -0.0422304262822 -2.41298345071 0.0 0.0 0.0
0.38 0.475 0.0 4 5 0 1.44353095606 0.596720585288 -0.124623013458 0.0 0.0 0.0
0.475 0.475 0.0 5 5 0 1.24540527553 -1.56054403373 -0.691578782501 0.0 0.0 0.0
0.57 0.475 0.0 6 5 0 0.738179518423 1.30409894728 1.49623308894 0.0 0.0 0.0
0.665 0.475 0.0 7 5 0 0.21451975496 0.95432216395 -0.0406101875228 0.0 0.0 0.0
0.76 0.475 0.0 8 5 0 -0.836344512056 0.0996802130061 -0.511261747235 0.0 0.0 0.0
0.855 0.475 0.0 9 5 0 2.051895114 0.744215342424 -1.11267717306 0.0 0.0 0.0
0.95 0.475 0.0 10 5 0 0.205619356834 -0.0831533778681 0.754776233103 0.0 0.0 0.0
1.045 0.475 0.0 11 5 0 0.646560150889 -0.821632878632 0.043762217831 0.0 0.0 0.0
1.14 0.475 0.0 12 5 0 0.121701595568 -0.980571522705 1.70903439463 0.0 0.0 0.0
1.235 0.475 0.0 13 5 0 0.744103857721 0.554348715345 -0.344795628882 0.0 0.0 0.0
1.33 0.475 0.0 14 5 0 -1.49397746762 1.66499381865 -0.17413760967 0.0 0.0 0.0
1.425 0.475 0.0 15 5 0 0.752581457475 -0.184996918435 -0.675802498368 0.0 0.0 0.0
1.52 0.475 0.0 16 5 0 1.2082747384 -1.0933488361 0.917229695355 0.0 0.0 0.0
1.615 0.475 0.0 17 5 0 1.22448609979 -0.496684870474 0.983653377202 0.0 0.0 0.0
1.71 0.475 0.0 18 5 0 -0.115128367883 -1.29219955377 -0.968022472519 0.0 0.0 0.0
1.805 0.475 0.0 19 5 0 0.0192840845567 -0.827257022812 1.08265781049 0.0 0.0 0.0
0.0 0.57 0.0 0 6 0 -0.0330287380966 -0.908295400984 0.811268933352 0.0 0.0 0.0
0.095 0.57 0.0 1 6 0 1.10927736764 0.735528622546 1.22094907297 0.0 0.0 0.0
0.19 0.57 0.0 2 6 0 -1.05520765674 -0.0477606876306 -0.380910262526 0.0 0.0 0.0
0.285 0.57 0.0 3 6 0 0.281234554335 0.437611127693 -2.44158242637 0.0 0.0 0.0
0.38 0.57 0.0 4 6 0 -1.67627298869 -0.297560954542 0.0386963272343 0.0 0.0 0.0
0.475 0.57 0.0 5 6 0 -2.12685972021 0.373958558807 -0.531310887509 0.0 0.0 0.0
0.57 0.57 0.0 6 6 0 0.594785430774 1.8956497513 0.976778129869 0.0 0.0 0.0
0.665 0.57 0.0 7 6 0 1.26805286392 -1.02970745264 -2.1237816151 0.0 0.0 0.0
0.76 0.57 0.0 8 6 0 -1.63674303169 -0.52020182957 -1.75943599715 0.0 0.0 0.0
0.855 0.57 0.0 9 6 0 0.77003544273 -1.12465032268 -1.0256800992 0.0 0.0 0.0
0.95 0.57 0.0 10 6 0 -0.0713659776034 -0.232290022388 0.589856537599 0.0 0.0 0.0
1.045 0.57 0.0 11 6 0 -0.0387252005739 2.14671769893 0.142487963797 0.0 0.0 0.0
1.14 0.57 0.0 12 6 0 0.56528673592 0.478121247371 -0.479266372612 0.0 0.0 0.0
1.235 0.57 0.0 13 6 0 -1.62333661818 0.159098389775 1.15031048346 0.0 0.0 0.0
1.33 0.57 0.0 14 6 0 1.53299283797 1.03616425303 -1.87824127512 0.0 0.0 0.0
1.425 0.57 0.0 15 6 0 -0.312963512652 -0.792782448361 0.343525077289 0.0 0.0 0.0
1.52 0.57 0.0 16 6 0 -0.500341732157 -0.871947553512 0.484819571075 0.0 0.0 0.0
1.615 0.57 0.0 17 6 0 0.807935777911 1.16949425389 -0.984559026307 0.0 0.0 0.0
1.71 0.57 0.0 18 6 0 -0.527007208413 0.493368684899 -0.575326195733 0.0 0.0 0.0
1.805 0.57 0.0 19 6 0 -0.200030734157 -0.704994621135 -0.869834964421 0.0 0.0 0.0
0.0 0.665 0.0 0 7 0 -1.20465203205 0.354668766278 0.266214562912 0.0 0.0 0.0
0.095 0.665 0.0 1 7 0 -0.85421078395 -0.836995669691 1.7461754753 0.0 0.0 0.0
0.19 0.665 0.0 2 7 0 -1.86981315604 1.08789424318 0.170014624261 0.0 0.0 0.0
0.285 0.665 0.0 3 7 0 0.72368966131 1.05688766993 0.41181813453 0.0 0.0 0.0
0.38 0.665 0.0 4 7 0 -0.952539958163 -0.106316496805 0.0351858258947 0.0 0.0 0.0
0.475 0.665 0.0 5 7 0 -1.77889909621 -0.408902277004 0.765064906416 0.0 0.0 0.0
0.57 0.665 0.0 6 7 0 0.274624466209 0.836630003293 -0.921767380404 0.0 0.0 0.0
0.665 0.665 0.0 7 7 0 -0.0252248271652 1.16646839958 0.832980853443 0.0 0.0 0.0
0.76 0.665 0.0 8 7 0 -1.22183901916 0.175516732916 0.840220421219 0.0 0.0 0.0
0.855 0.665 0.0 9 7 0 0.635424662329 -0.000317878394887 1.44467960562 0.0 0.0 0.0
0.95 0.665 0.0 10 7 0 -0.243431816439 -0.292937677969 0.458782519771 0.0 0.0 0.0
1.045 0.665 0.0 11 7 0 0.464322998748 -0.180696764955 -1.56568692783 0.0 0.0 0.0
1.14 0.665 0.0 12 7 0 0.905267457426 -2.34078272151 0.700530573565 0.0 0.0 0.0
1.235 0.665 0.0 13 7 0 -1.1977049455 -1.24169420307 0.319642483675 0.0 0.0 0.0
1.33 0.665 0.0 14 7 0 2.45880731631 1.47696254262 -0.454559182565 0.0 0.0 0.0
1.425 0.665 0.0 15 7 0 -1.49482504007 -0.838906667131 2.08123730122 0.0 0.0 0.0
1.52 0.665 0.0 16 7 0 -0.00196549001412 -1.78913352874 -1.68702051368 0.0 0.0 0.0
1.615 0.665 0.0 17 7 0 0.494690245934 -1.27850963977 0.162399413071 0.0 0.0 0.0
1.71 0.665 0.0 18 7 0 -0.634521960452 -0.451740750604 0.75657014934 0.0 0.0 0.0
1.805 0.665 0.0 19 7 0 0.422218300646 0.525191435942 0.384477259705 0.0 0.0 0.0
0.0 0.76 0.0 0 8 0 0.90924189782 1.24938591837 0.211538496389 0.0 0.0 0.0
0.095 0.76 0.0 1 8 0 -0.705330946949 -0.663859717403 -0.127166114682 0.0 0.0 0.0
0.19 0.76 0.0 2 8 0 -1.4798931381 -0.951096971446 0.667753488095 0.0 0.0 0.0
0.285 0.76 0.0 3 8 0 0.60574936826 1.40812268133 -1.15627518325 0.0 0.0 0.0
0.38 0.76 0.0 4 8 0 0.016279323136 -1.23780498005 -0.349032775273 0.0 0.0 0.0
0.475 0.76 0.0 5 8 0 -1.80573372403 -1.77459479189 0.18700189079 0.0 0.0 0.0
0.57 0.76 0.0 6 8 0 1.13503917715 1.36879189351 -2.06961202289 0.0 0.0 0.0
0.665 0.76 0.0 7 8 0 -0.865578017998 -1.54695307774 -0.48563582935 0.0 0.0 0.0
0.76 0.76 0.0 8 8 0 0.195016519225 2.26588947294 -0.636099619204 0.0 0.0 0.0
0.855 0.76 0.0 9 8 0 0.399138619626 -0.640062669682 -0.0973148015746 0.0 0.0 0.0
0.95 0.76 0.0 10 8 0 -1.42849715293 0.955419198935 1.04170765481 0.0 0.0 0.0
1.045 0.76 0.0 11 8 0 0.12327692786 -1.81654632988 -0.459189277849 0.0 0.0 0.0
1.14 0.76 0.0 12 8 0 0.448759757149 0.0320463419941 0.268358900967 0.0 0.0 0.0
1.235 0.76 0.0 13 8 0 -0.439348590065 -0.537335544741 0.729235570388 0.0 0.0 0.0
1.33 0.76 0.0 14 8 0 -0.220882782883 -0.412217764301 0.388055778351 0.0 0.0 0.0
1.425 0.76 0.0 15 8 0 -1.46274514318 0.0955650954361 0.20083261866 0.0 0.0 0.0
1.52 0.76 0.0 16 8 0 -0.292480969519 -1.58342504221 0.118689793717 0.0 0.0 0.0
1.615 0.76 0.0 17 8 0 -0.902069400617 0.325136229297 1.020217235 0.0 0.0 0.0
1.71 0.76 0.0 18 8 0 -0.0175445977209 0.193469316642 0.169841606651 0.0 0.0 0.0
1.805 0.76 0.0 19 8 0 -2.2295063658 -0.495294116163 1.05844300658 0.0 0.0 0.0
0.0 0.855 0.0 0 9 0 -0.596120838814 0.141880235098 0.477800670739 0.0 0.0 0.0
0.095 0.855 0.0 1 9 0 0.126298309566 0.740058181765 1.27754797284 0.0 0.0 0.0
0.19 0.855 0.0 2 9 0 -1.77405744851 0.584239074204 1.23543477666 0.0 0.0 0.0
0.285 0.855 0.0 3 9 0 1.3200367289 0.000218602309602 1.18791143284 0.0 0.0 0.0
0.38 0.855 0.0 4 9 0 0.0208100242998 0.203019467334 -1.99214215716 0.0 0.0 0.0
0.475 0.855 0.0 5 9 0 0.36881554567 -0.893445415112 0.387039874113 0.0 0.0 0.0
0.57 0.855 0.0 6 9 0 -0.118437914885 0.779484672381 -0.212822503263 0.0 0.0 0.0
0.665 0.855 0.0 7 9 0 0.592178181383 -0.125224802282 -0.45802068575 0.0 0.0 0.0
0.76 0.855 0.0 8 9 0 0.580295324047 0.178053274227 -0.108481482561 0.0 0.0 0.0
0.855 0.855 0.0 9 9 0 -1.61423553828 -0.829841194482 0.670928812539 0.0 0.0 0.0
0.95 0.855 0.0 10 9 0 -0.318596361763 0.0337364715006 -0.284106376378 0.0 0.0 0.0
1.045 0.855 0.0 11 9 0 1.41578943669 0.133496307556 0.781169135354 0.0 0.0 0.0
1.14 0.855 0.0 12 9 0 1.70660301743 -0.378276140573 -0.695387776196 0.0 0.0 0.0
1.235 0.855 0.0 13 9 0 0.439090452331 0.54448392469 -0.542806812835 0.0 0.0 0.0
1.33 0.855 0.0 14 9 0 -0.523214247732 1.97774724291 0.540629044498 0.0 0.0 0.0
1.425 0.855 0.0 15 9 0 -0.706550590248 1.16475686502 0.546298465667 0.0 0.0 0.0
1.52 0.855 0.0 16 9 0 -0.232928316665 0.629325888787 -0.276186355568 0.0 0.0 0.0
1.615 0.855 0.0 17 9 0 -1.10876833612 1.49667293947 -1.18565505761 0.0 0.0 0.0
1.71 0.855 0.0 18 9 0 -0.0651329521285 0.526628616871 -1.52406328551 0.0 0.0 0.0
1.805 0.855 0.0 19 9 0 0.888447515471 0.0142045799033 -1.1797944463 0.0 0.0 0.0
0.0 0.95 0.0 0 10 0 0.0608465159205 -0.218516992356 -0.692516776882 0.0 0.0 0.0
0.095 0.95 0.0 1 10 0 0.194995920499 1.41213006868 -0.181449675675 0.0 0.0 0.0
0.19 0.95 0.0 2 10 0 -0.325575175753 -1.19443756216 2.31849868425 0.0 0.0 0.0
0.285 0.95 0.0 3 10 0 2.01499646586 -0.553409930565 0.0746632072805 0.0 0.0 0.0
0.38 0.95 0.0 4 10 0 -0.269596121576 0.870280154396 0.843837137872 0.0 0.0 0.0
0.475 0.95 0.0 5 10 0 -0.294116296886 -0.389928968003 -1.1194181414 0.0 0.0 0.0
0.57 0.95 0.0 6 10 0 0.279852742526 -2.89299421174 1.68915693217 0.0 0.0 0.0
0.665 0.95 0.0 7 10 0 -0.439934887658 -1.64706988599 2.36085720212 0.0 0.0 0.0
0.76 0.95 0.0 8 10 0 0.277044585743 1.84627184845 2.04004139134 0.0 0.0 0.0
0.855 0.95 0.0 9 10 0 0.0271123807877 -0.123001634292 0.0671395983041 0.0 0.0 0.0
0.95 0.95 0.0 10 10 0 1.10840777311 -0.891203390282 -1.12083174302 0.0 0.0 0.0
1.045 0.95 0.0 11 10 0 0.875406418301 -1.46004987108 0.265991759192 0.0 0.0 0.0
1.14 0.95 0.0 12 10 0 0.0735525893434 0.175278545488 -0.156427876679 0.0 0.0 0.0
1.235 0.95 0.0 13 10 0 1.91365995018 -1.41361710714 -0.425360354621 0.0 0.0 0.0
1.33 0.95 0.0 14 10 0 -0.110437338765 -0.122032805446 0.375683718577 0.0 0.0 0.0
1.425 0.95 0.0 15 10 0 -2.45852402962 -1.33454095873 0.325270159062 0.0 0.0 0.0
1.52 0.95 0.0 16 10 0 1.14908667854 -1.25435862809 -1.15321318011 0.0 0.0 0.0
1.615 0.95 0.0 17 10 0 -1.64160589538 -0.399827983966 -1.30286847406 0.0 0.0 0.0
1.71 0.95 0.0 18 10 0 -0.162393816362 0.0428881538944 -0.34497792245 0.0 0.0 0.0
1.805 0.95 0.0 19 10 0 -0.911747511263 0.798991933606 0.24162049626 0.0 0.0 0.0
0.0 1.045 0.0 0 11 0 1.29963507364 -0.170932813813 1.66725938041 0.0 0.0 0.0
0.095 1.045 0.0 1 11 0 0.303103072255 0.71898203071 0.0660094502526 0.0 0.0 0.0
0.19 1.045 0.0 2 11 0 -0.568144702678 0.764868800269 0.683345198278 0.0 0.0 0.0
0.285 1.045 0.0 3 11 0 -0.832510398167 -0.333129749111 0.980624097446 0.0 0.0 0.0
0.38 1.045 0.0 4 11 0 -2.14222144879 0.105324421885 -1.70470961223 0.0 0.0 0.0
0.475 1.045 0.0 5 11 0 0.735532477309 0.688829422487 -0.344830164389 0.0 0.0 0.0
0.57 1.045 0.0 6 11 0 -1.14490238272 -0.624030690338 0.0281735127997 0.0 0.0 0.0
0.665 1.045 0.0 7 11 0 0.965633608933 0.775091933387 -0.0557210203495 0.0 0.0 0.0
0.76 1.045 0.0 8 11 0 1.37118150308 0.298158908663 -1.13214579225 0.0 0.0 0.0
0.855 1.045 0.0 9 11 0 0.928412178333 0.166401583102 -0.140043306879 0.0 0.0 0.0
0.95 1.045 0.0 10 11 0 -0.325211493739 1.31492278427 -1.37286062647 0.0 0.0 0.0
1.045 1.045 0.0 11 11 0 -0.513800578455 0.167116027203 0.0683908679408 0.0 0.0 0.0
1.14 1.045 0.0 12 11 0 -0.526879563008 1.25283130511 0.929162645226 0.0 0.0 0.0
1.235 1.045 0.0 13 11 0 -0.696142062307 1.66010832306 -0.719125401004 0.0 0.0 0.0
1.33 1.045 0.0 14 11 0 -3.12136643168 -0.451360075139 -0.272696122644 0.0 0.0 0.0
1.425 1.045 0.0 15 11 0 0.44700237071 0.360699004824 0.261679222312 0.0 0.0 0.0
1.52 1.045 0.0 16 11 0 0.231449245253 -0.474539145536 0.792506379936 0.0 0.0 0.0
1.615 1.045 0.0 17 11 0 0.167518027706 -0.286256102783 1.96953058807 0.0 0.0 0.0
1.71 1.045 0.0 18 11 0 0.906968100084 1.36567868162 0.208581798857 0.0 0.0 0.0
1.805 1.045 0.0 19 11 0 -0.41630211039 -0.0949390164586 -0.948357922946 0.0 0.0 0.0
0.0 1.14 0.0 0 12 0 -0.512272272915 -1.07638596258 1.18389535265 0.0 0.0 0.0
0.095 1.14 0.0 1 12 0 -0.636723431296 -0.118821251876 -2.11827871635 0.0 0.0 0.0
0.19 1.14 0.0 2 12 0 -0.1921928024 -0.267217799314 -0.104325991778 0.0 0.0 0.0
0.285 1.14 0.0 3 12 0 0.412906922062 1.17080509312 0.162193894168 0.0 0.0 0.0
0.38 1.14 0.0 4 12 0 -0.538369726768 1.8040157017 -1.16114497043 0.0 0.0 0.0
0.475 1.14 0.0 5 12 0 1.3533116068 0.771878335558 -0.496724704928 0.0 0.0 0.0
0.57 1.14 0.0 6 12 0 -1.46615851153 0.200241351486 0.112493703686 0.0 0.0 0.0
0.665 1.14 0.0 7 12 0 0.00205174462361 0.860166527092 1.08423921894 0.0 0.0 0.0
0.76 1.14 0.0 8 12 0 0.512785899668 -0.0526497881143 0.451043996817 0.0 0.0 0.0
0.855 1.14 0.0 9 12 0 -0.597640268339 -0.410586535359 -0.736787077935 0.0 0.0 0.0
0.95 1.14 0.0 10 12 0 -1.94632601914 -2.40321953433 -1.21281590126 0.0 0.0 0.0
1.045 1.14 0.0 11 12 0 0.326165453994 -0.254153747879 -0.225631378883 0.0 0.0 0.0
1.14 1.14 0.0 12 12 0 0.492829451997 0.280322577939 -0.99907816186 0.0 0.0 0.0
1.235 1.14 0.0 13 12 0 -0.328124009163 -0.431009214632 -1.33195329986 0.0 0.0 0.0
1.33 1.14 0.0 14 12 0 2.04422090112 0.892144806071 -1.44906892464 0.0 0.0 0.0
1.425 1.14 0.0 15 12 0 0.392134446335 0.35444161125 -1.45256302331 0.0 0.0 0.0
1.52 1.14 0.0 16 12 0 0.992713327864 -0.978866122682 -0.192210874385 0.0 0.0 0.0
1.615 1.14 0.0 17 12 0 -0.346192705956 0.253964202968 0.396946697026 0.0 0.0 0.0
1.71 1.14 0.0 18 12 0 -1.81596061009 -0.336017375313 1.43989898256 0.0 0.0 0.0
1.805 1.14 0.0 19 12 0 -1.61205589809 -0.0432376843818 0.00296467459823 0.0 0.0 0.0
0.0 1.235 0.0 0 13 0 -2.31649543942 -1.22778962592 1.88912822855 0.0 0.0 0.0
0.095 1.235 0.0 1 13 0 -0.215005815187 0.878896915784 0.480568253754 0.0 0.0 0.0
0.19 1.235 0.0 2 13 0 0.802848740822 -0.672991555233 1.44427812183 0.0 0.0 0.0
0.285 1.235 0.0 3 13 0 -0.783705354319 1.90093362306 -1.27827072732 0.0 0.0 0.0
0.38 1.235 0.0 4 13 0 -1.44658123755 -0.330130967176 -1.23364624409 0.0 0.0 0.0
0.475 1.235 0.0 5 13 0 0.471275915358 1.42418050095 0.153172097142 0.0 0.0 0.0
0.57 1.235 0.0 6 13 0 0.646495736792 0.0345844945275 -0.898239881457 0.0 0.0 0.0
0.665 1.235 0.0 7 13 0 0.64109278889 -0.113712505994 1.20189229547 0.0 0.0 0.0
0.76 1.235 0.0 8 13 0 -0.152605114233 -1.30829777337 -1.45303500853 0.0 0.0 0.0
0.855 1.235 0.0 9 13 0 -0.0257121163397 -0.28966193267 0.698311352976 0.0 0.0 0.0
0.95 1.235 0.0 10 13 0 0.546341713411 -0.239659247171 -0.672338051117 0.0 0.0 0.0
1.045 1.235 0.0 11 13 0 -1.07449987122 1.42845238265 0.61356316668 0.0 0.0 0.0
1.14 1.235 0.0 12 13 0 -1.32895127768 0.181199952382 1.29620209763 0.0 0.0 0.0
1.235 1.235 0.0 13 13 0 0.93223082654 -0.105890842331 0.541865556453 0.0 0.0 0.0
1.33 1.235 0.0 14 13 0 -0.673910516801 -1.00568811935 0.51403563036 0.0 0.0 0.0
1.425 1.235 0.0 15 13 0 0.897693046704 1.49437712789 0.516341890446 0.0 0.0 0.0
1.52 1.235 0.0 16 13 0 0.0232062839893 0.0374584692077 1.6691229943 0.0 0.0 0.0
1.615 1.235 0.0 17 13 0 -1.03176362835 -0.269368811137 0.172027988308 0.0 0.0 0.0
1.71 1.235 0.0 18 13 0 0.649322379171 -0.373505267306 0.247650963549 0.0 0.0 0.0
1.805 1.235 0.0 19 13 0 -0.139734250455 -0.629037084002 -0.725388508422 0.0 0.0 0.0
0.0 1.33 0.0 0 14 0 0.849535958852 -1.20632508966 -1.22726137624 0.0 0.0 0.0
0.095 1.33 0.0 1 14 0 0.250430539267 0.415133486275 1.07913629464 0.0 0.0 0.0
0.19 1.33 0.0 2 14 0 0.230935526456 1.74411076957 1.80120933538 0.0 0.0 0.0
0.285 1.33 0.0 3 14 0 1.16515389619 -0.272639865463 0.770791259689 0.0 0.0 0.0
0.38 1.33 0.0 4 14 0 0.807777987475 1.3832949033 -1.63357096934 0.0 0.0 0.0
0.475 1.33 0.0 5 14 0 0.25307394295 0.350316763659 1.35186972149 0.0 0.0 0.0
0.57 1.33 0.0 6 14 0 -1.02465886538 0.785001024258 -1.45544399894 0.0 0.0 0.0
0.665 1.33 0.0 7 14 0 -0.750482454511 -1.20663075202 0.245626803889 0.0 0.0 0.0
0.76 1.33 0.0 8 14 0 1.04659730495 0.972010858954 0.0954476486522 0.0 0.0 0.0
0.855 1.33 0.0 9 14 0 0.0136418525779 -0.0824757796233 -0.366024043509 0.0 0.0 0.0
0.95 1.33 0.0 10 14 0 0.103924664935 -0.139685324006 -2.5955832119 0.0 0.0 0.0
1.045 1.33 0.0 11 14 0 -1.22632140026 -1.22283724002 1.42261459639 0.0 0.0 0.0
1.14 1.33 0.0 12 14 0 1.13056589299 -0.537856006501 0.520823313396 0.0 0.0 0.0
1.235 1.33 0.0 13 14 0 0.0991694272457 -0.528375220518 0.088195060315 0.0 0.0 0.0
1.33 1.33 0.0 14 14 0 -0.84096603871 1.56563648679 -1.47526861922 0.0 0.0 0.0
1.425 1.33 0.0 15 14 0 0.00371421547486 -1.26287805126 -0.10503954226 0.0 0.0 0.0
1.52 1.33 0.0 16 14 0 -0.74452571613 1.26407811731 -0.904603569599 0.0 0.0 0.0
1.615 1.33 0.0 17 14 0 0.579727034787 2.62188760367 -0.997922524507 0.0 0.0 0.0
1.71 1.33 0.0 18 14 0 0.811880506628 2.03590317396 0.13679776551 0.0 0.0 0.0
1.805 1.33 0.0 19 14 0 -1.58451027345 -0.534228752454 -0.198320447432 0.0 0.0 0.0
0.0 1.425 0.0 0 15 0 -1.55872775994 -1.94673161199 -0.920464918785 0.0 0.0 0.0
0.095 1.425 0.0 1 15 0 -0.118208456907 -1.55399551807 -0.175879769194 0.0 0.0 0.0
0.19 1.425 0.0 2 15 0 -0.132161376538 0.665888681796 0.15957728709 0.0 0.0 0.0
0.285 1.425 0.0 3 15 0 1.5536528221 0.283713036424 -0.274903175509 0.0 0.0 0.0
0.38 1.425 0.0 4 15 0 0.214963129095 1.33355107138 -1.16457633652 0.0 0.0 0.0
0.475 1.425 0.0 5 15 0 0.518376355445 -0.781970073416 -1.44077341585 0.0 0.0 0.0
0.57 1.425 0.0 6 15 0 -0.808297666987 0.161419691608 0.658713949258 0.0 0.0 0.0
0.665 1.425 0.0 7 15 0 1.10503948852 -0.0990261037343 0.0587600104765 0.0 0.0 0.0
0.76 1.425 0.0 8 15 0 1.61906183124 0.348254525262 0.722546400734 0.0 0.0 0.0
0.855 1.425 0.0 9 15 0 -1.05755576778 0.152351985434 1.1766599929 0.0 0.0 0.0
0.95 1.425 0.0 10 15 0 0.534342092555 1.97140604103 -0.683398266734 0.0 0.0 0.0
1.045 1.425 0.0 11 15 0 0.0800795052128 -1.48442375474 -0.505367022547 0.0 0.0 0.0
1.14 1.425 0.0 12 15 0 -2.61404291162 1.48104977328 -1.09983410747 0.0 0.0 0.0
1.235 1.425 0.0 13 15 0 0.0797692427214 -2.69840334211 -0.397475083717 0.0 0.0 0.0
1.33 1.425 0.0 14 15 0 1.49544692551 -1.21479328186 0.814413293466 0.0 0.0 0.0
1.425 1.425 0.0 15 15 0 -1.64771185207 0.282670139125 -0.0797296645258 0.0 0.0 0.0
1.52 1.425 0.0 16 15 0 -2.79324958439 0.234978625551 0.1816552533 0.0 0.0 0.0
1.615 1.425 0.0 17 15 0 -0.116552052242 -0.210710231935 -0.363699541179 0.0 0.0 0.0
1.71 1.425 0.0 18 15 0 1.33623286239 1.49662985862 1.25115912206 0.0 0.0 0.0
1.805 1.425 0.0 19 15 0 0.550752776052 0.387433221795 0.117068814054 0.0 0.0 0.0
0.0 1.52 0.0 0 16 0 1.04938261636 1.47943795422 0.418601364061 0.0 0.0 0.0
0.095 1.52 0.0 1 16 0 -1.27836836881 0.23130618196 0.106306058801 0.0 0.0 0.0
0.19 1.52 0.0 2 16 0 0.227915889505 -0.437718832547 -0.281676707094 0.0 0.0 0.0
0.285 1.52 0.0 3 16 0 -1.93331085393 0.370576318542 -0.346826692422 0.0 0.0 0.0
0.38 1.52 0.0 4 16 0 0.0290593466583 -0.555622118044 -1.46370934389 0.0 0.0 0.0
0.475 1.52 0.0 5 16 0 -1.09572654831 0.803774343492 -1.75489398642 0.0 0.0 0.0
0.57 1.52 0.0 6 16 0 0.421415277362 1.13262828681 0.734439704882 0.0 0.0 0.0
0.665 1.52 0.0 7 16 0 -1.39302142478 0.831260701674 -0.693665024658 0.0 0.0 0.0
0.76 1.52 0.0 8 16 0 0.549145839962 -0.964372398559 0.64059029935 0.0 0.0 0.0
0.855 1.52 0.0 9 16 0 -0.498642303209 -0.41348135497 -0.308486931787 0.0 0.0 0.0
0.95 1.52 0.0 10 16 0 -0.785623203152 -0.253375383184 0.144383025534 0.0 0.0 0.0
1.045 1.52 0.0 11 16 0 -0.324787211373 -1.10115989539 -0.516194264055 0.0 0.0 0.0
1.14 1.52 0.0 12 16 0 -0.216625084661 -0.058294862705 0.314752935098 0.0 0.0 0.0
1.235 1.52 0.0 13 16 0 -1.22816160108 0.0597906761328 -1.64032164225 0.0 0.0 0.0
1.33 1.52 0.0 14 16 0 -0.352956600921 -0.99264421304 0.156235191521 0.0 0.0 0.0
1.425 1.52 0.0 15 16 0 -0.119538050096 1.11217016863 0.180238175851 0.0 0.0 0.0
1.52 1.52 0.0 16 16 0 -1.05406987945 -1.07982493252 -0.0697925950861 0.0 0.0 0.0
1.615 1.52 0.0 17 16 0 1.47394661911 -1.00656085318 0.431183186347 0.0 0.0 0.0
1.71 1.52 0.0 18 16 0 1.06602738674 0.880988900447 0.396327819597 0.0 0.0 0.0
1.805 1.52 0.0 19 16 0 -0.299681917127 -0.00429124433901 -0.611142058318 0.0 0.0 0.0
0.0 1.615 0.0 0 17 0 -0.384237768114 2.18685181512 0.0315369427404 0.0 0.0 0.0
0.095 1.615 0.0 1 17 0 1.36148938147 0.0277743950843 -0.700745597357 0.0 0.0 0.0
0.19 1.615 0.0 2 17 0 -0.111220903768 -0.654442718969 0.143763007065 0.0 0.0 0.0
0.285 1.615 0.0 3 17 0 -1.41660106065 -0.621009897364 2.2690970109 0.0 0.0 0.0
0.38 1.615 0.0 4 17 0 0.640178360247 -0.736691639241 2.39613740874 0.0 0.0 0.0
0.475 1.615 0.0 5 17 0 1.27225425768 0.626621057871 -0.0604803510345 0.0 0.0 0.0
0.57 1.615 0.0 6 17 0 -1.67454855044 1.48026398869 -0.878027504276 0.0 0.0 0.0
0.665 1.615 0.0 7 17 0 0.778960172299 -0.234735719745 0.354553944258 0.0 0.0 0.0
0.76 1.615 0.0 8 17 0 -1.69568368668 -0.889636995032 -1.54954189503 0.0 0.0 0.0
0.855 1.615 0.0 9 17 0 1.39374748459 -0.262444433992 0.39850776806 0.0 0.0 0.0
0.95 1.615 0.0 10 17 0 1.02387960911 1.74972404111 -1.28531872878 0.0 0.0 0.0
1.045 1.615 0.0 11 17 0 1.38902711156 -0.192816129363 -0.501104524057 0.0 0.0 0.0
1.14 1.615 0.0 12 17 0 -0.742522393899 -2.11103504085 0.849350182917 0.0 0.0 0.0
1.235 1.615 0.0 13 17 0 0.198552692018 -0.15932569073 -0.880620479999 0.0 0.0 0.0
1.33 1.615 0.0 14 17 0 1.70620543838 -0.132112261987 -1.7327720938 0.0 0.0 0.0
1.425 1.615 0.0 15 17 0 0.180536423007 1.0082353821 0.385977440719 0.0 0.0 0.0
1.52 1.615 0.0 16 17 0 -1.0647255838 1.0530604642 0.334630767149 0.0 0.0 0.0
1.615 1.615 0.0 17 17 0 -1.37096093609 -0.213055576251 -0.112603029691 0.0 0.0 0.0
1.71 1.615 0.0 18 17 0 2.50938498727 0.556548111875 0.649015578367 0.0 0.0 0.0
1.805 1.615 0.0 19 17 0 0.0893426110781 -1.69630957527 -0.240910571422 0.0 0.0 0.0
0.0 1.71 0.0 0 18 0 1.46882263777 0.599823083118 0.094473949783 0.0 0.0 0.0
0.095 1.71 0.0 1 18 0 -0.710047171852 0.304811140837 -0.77518674643 0.0 0.0 0.0
0.19 1.71 0.0 2 18 0 1.12758526438 -1.63497167349 -0.424270671654 0.0 0.0 0.0
0.285 1.71 0.0 3 18 0 0.196748040232 -0.908266704117 -1.11072381271 0.0 0.0 0.0
0.38 1.71 0.0 4 18 0 0.892685459523 -0.922512158559 -0.478166123496 0.0 0.0 0.0
0.475 1.71 0.0 5 18 0 1.14929671338 -1.04823685327 -0.306865833407 0.0 0.0 0.0
0.57 1.71 0.0 6 18 0 -0.529448974884 -1.04129235632 -0.0675225486775 0.0 0.0 0.0
0.665 1.71 0.0 7 18 0 0.158550463431 -0.146297120965 1.13045966918 0.0 0.0 0.0
0.76 1.71 0.0 8 18 0 0.986629374465 0.530868487437 0.184143681237 0.0 0.0 0.0
0.855 1.71 0.0 9 18 0 0.597992607674 -1.69501666126 -1.6952427286 0.0 0.0 0.0
0.95 1.71 0.0 10 18 0 0.945292460179 1.17812614021 1.92410173231 0.0 0.0 0.0
1.045 1.71 0.0 11 18 0 -0.0862946010138 0.0701277431018 -0.37215093485 0.0 0.0 0.0
1.14 1.71 0.0 12 18 0 -1.74908887873 -0.796203609708 1.61805355483 0.0 0.0 0.0
1.235 1.71 0.0 13 18 0 1.08937735831 0.253891103228 -0.528282270407 0.0 0.0 0.0
1.33 1.71 0.0 14 18 0 0.880562736972 0.00576020858697 -1.87589711729 0.0 0.0 0.0
1.425 1.71 0.0 15 18 0 0.635210074299 -1.19033558938 -1.46149490315 0.0 0.0 0.0
1.52 1.71 0.0 16 18 0 -1.24968529092 0.300875111731 -0.0725925401392 0.0 0.0 0.0